
***************************************************************
*                 Welcome to use GPUMD                        *
*    (Graphics Processing Units Molecular Dynamics)           *
*                    Version 3.9.4                            *
*              This is the nep executable                     *
***************************************************************


---------------------------------------------------------------
GPU information:
---------------------------------------------------------------

number of GPUs = 4
Device id:                   0
    Device name:             NVIDIA GeForce RTX 4090
    Compute capability:      8.9
    Amount of global memory: 23.6497 GB
    Number of SMs:           128
Device id:                   1
    Device name:             NVIDIA GeForce RTX 4090
    Compute capability:      8.9
    Amount of global memory: 23.6497 GB
    Number of SMs:           128
Device id:                   2
    Device name:             NVIDIA GeForce RTX 4090
    Compute capability:      8.9
    Amount of global memory: 23.6497 GB
    Number of SMs:           128
Device id:                   3
    Device name:             NVIDIA GeForce RTX 4090
    Compute capability:      8.9
    Amount of global memory: 23.6497 GB
    Number of SMs:           128
GPU-0 cannot access GPU-1.
GPU-0 cannot access GPU-2.
GPU-0 cannot access GPU-3.
GPU-1 cannot access GPU-0.
GPU-1 cannot access GPU-2.
GPU-1 cannot access GPU-3.
GPU-2 cannot access GPU-0.
GPU-2 cannot access GPU-1.
GPU-2 cannot access GPU-3.
GPU-3 cannot access GPU-0.
GPU-3 cannot access GPU-1.
GPU-3 cannot access GPU-2.

---------------------------------------------------------------
Started running nep.
---------------------------------------------------------------


---------------------------------------------------------------
Started reading nep.in.
---------------------------------------------------------------

Input or default parameters:
    (default) model_type = potential.
    (default) calculation mode = train.
    (input)   use NEP version 4.
    (input)   number of atom types = 15.
        (default) type 0 (Li with Z = 3) has force weight of 1.
        (default) type 1 (B with Z = 5) has force weight of 1.
        (default) type 2 (O with Z = 8) has force weight of 1.
        (default) type 3 (Al with Z = 13) has force weight of 1.
        (default) type 4 (Si with Z = 14) has force weight of 1.
        (default) type 5 (P with Z = 15) has force weight of 1.
        (default) type 6 (S with Z = 16) has force weight of 1.
        (default) type 7 (Cl with Z = 17) has force weight of 1.
        (default) type 8 (Ga with Z = 31) has force weight of 1.
        (default) type 9 (Ge with Z = 32) has force weight of 1.
        (default) type 10 (As with Z = 33) has force weight of 1.
        (default) type 11 (Br with Z = 35) has force weight of 1.
        (default) type 12 (Sn with Z = 50) has force weight of 1.
        (default) type 13 (Sb with Z = 51) has force weight of 1.
        (default) type 14 (I with Z = 53) has force weight of 1.
    (default) will not add the ZBL potential.
    (input)   radial cutoff = 7 A.
    (input)   angular cutoff = 5 A.
    (input)   n_max_radial = 6.
    (input)   n_max_angular = 4.
    (input)   basis_size_radial = 8.
    (input)   basis_size_angular = 8.
    (input)   L_max = 4 0 0.
    (input)   number of neurons = 30.
    (default) lambda_1 = 0.0157799.
    (default) lambda_2 = 0.0157799.
    (input)   lambda_e = 0.2.
    (input)   lambda_f = 1.
    (input)   lambda_v = 0.1.
    (default) lambda_shear = 1.
    (default) force_delta = 0.
    (input)   batch size = 2000.
    (input)   population size = 60.
    (input)   maximum number of generations = 1000000.
Some calculated parameters:
    number of radial descriptor components = 7.
    number of angular descriptor components = 20.
    total number of descriptor components = 27.
    NN architecture = 27-30-1.
    number of NN parameters to be optimized = 13051.
    number of descriptor parameters to be optimized = 24300.
    total number of parameters to be optimized = 37351.

---------------------------------------------------------------
Finished reading nep.in.
---------------------------------------------------------------


---------------------------------------------------------------
Started reading train.xyz.
---------------------------------------------------------------

Number of configurations = 975.
Number of devices = 4
Number of batches = 1
Hello, I changed the batch_size from 2000 to 975.

Batch 0:
Number of configurations = 975.

---------------------------------------------------------------
Constructing train_set in device  0.
Total number of atoms = 27476.
Number of atoms in the largest configuration = 84.
Number of configurations having virial = 975.
Radial descriptor with a cutoff of 7 A:
    Minimum number of neighbors for one atom = 7.
    Maximum number of neighbors for one atom = 192.
Angular descriptor with a cutoff of 5 A:
    Minimum number of neighbors for one atom = 1.
    Maximum number of neighbors for one atom = 74.
---------------------------------------------------------------


---------------------------------------------------------------
Constructing train_set in device  1.
Total number of atoms = 27476.
Number of atoms in the largest configuration = 84.
Number of configurations having virial = 975.
Radial descriptor with a cutoff of 7 A:
    Minimum number of neighbors for one atom = 7.
    Maximum number of neighbors for one atom = 192.
Angular descriptor with a cutoff of 5 A:
    Minimum number of neighbors for one atom = 1.
    Maximum number of neighbors for one atom = 74.
---------------------------------------------------------------


---------------------------------------------------------------
Constructing train_set in device  2.
Total number of atoms = 27476.
Number of atoms in the largest configuration = 84.
Number of configurations having virial = 975.
Radial descriptor with a cutoff of 7 A:
    Minimum number of neighbors for one atom = 7.
    Maximum number of neighbors for one atom = 192.
Angular descriptor with a cutoff of 5 A:
    Minimum number of neighbors for one atom = 1.
    Maximum number of neighbors for one atom = 74.
---------------------------------------------------------------


---------------------------------------------------------------
Constructing train_set in device  3.
Total number of atoms = 27476.
Number of atoms in the largest configuration = 84.
Number of configurations having virial = 975.
Radial descriptor with a cutoff of 7 A:
    Minimum number of neighbors for one atom = 7.
    Maximum number of neighbors for one atom = 192.
Angular descriptor with a cutoff of 5 A:
    Minimum number of neighbors for one atom = 1.
    Maximum number of neighbors for one atom = 74.
---------------------------------------------------------------


---------------------------------------------------------------
Started reading test.xyz.
---------------------------------------------------------------

Number of configurations = 54771.

---------------------------------------------------------------
Constructing test_set in device  0.
Total number of atoms = 2099348.
Number of atoms in the largest configuration = 84.
Number of configurations having virial = 54771.
Radial descriptor with a cutoff of 7 A:
    Minimum number of neighbors for one atom = 3.
    Maximum number of neighbors for one atom = 199.
Angular descriptor with a cutoff of 5 A:
    Minimum number of neighbors for one atom = 1.
    Maximum number of neighbors for one atom = 74.
---------------------------------------------------------------


---------------------------------------------------------------
Constructing test_set in device  1.
Total number of atoms = 2099348.
Number of atoms in the largest configuration = 84.
Number of configurations having virial = 54771.
Radial descriptor with a cutoff of 7 A:
    Minimum number of neighbors for one atom = 3.
    Maximum number of neighbors for one atom = 199.
Angular descriptor with a cutoff of 5 A:
    Minimum number of neighbors for one atom = 1.
    Maximum number of neighbors for one atom = 74.
---------------------------------------------------------------


---------------------------------------------------------------
Constructing test_set in device  2.
Total number of atoms = 2099348.
Number of atoms in the largest configuration = 84.
Number of configurations having virial = 54771.
Radial descriptor with a cutoff of 7 A:
    Minimum number of neighbors for one atom = 3.
    Maximum number of neighbors for one atom = 199.
Angular descriptor with a cutoff of 5 A:
    Minimum number of neighbors for one atom = 1.
    Maximum number of neighbors for one atom = 74.
---------------------------------------------------------------


---------------------------------------------------------------
Constructing test_set in device  3.
Total number of atoms = 2099348.
Number of atoms in the largest configuration = 84.
Number of configurations having virial = 54771.
Radial descriptor with a cutoff of 7 A:
    Minimum number of neighbors for one atom = 3.
    Maximum number of neighbors for one atom = 199.
Angular descriptor with a cutoff of 5 A:
    Minimum number of neighbors for one atom = 1.
    Maximum number of neighbors for one atom = 74.
---------------------------------------------------------------


---------------------------------------------------------------
Time used for initialization = 4.874327 s.
---------------------------------------------------------------


---------------------------------------------------------------
Started training.
---------------------------------------------------------------

Step    Total-Loss L1Reg-Loss L2Reg-Loss RMSE-E-Train RMSE-F-Train RMSE-V-Train RMSE-E-Test  RMSE-F-Test  RMSE-V-Test  
100     0.79108    0.00787    0.00915    0.22506      0.69188      0.37174      0.17775      0.66298      0.27457      
200     0.57548    0.00790    0.00924    0.14194      0.50256      0.27392      0.09914      0.49989      0.20771      
300     0.50509    0.00794    0.00933    0.13268      0.43787      0.23419      0.09665      0.42537      0.16938      
400     0.46889    0.00799    0.00942    0.12468      0.40422      0.22325      0.08609      0.40275      0.16887      
500     0.44409    0.00804    0.00952    0.10023      0.38529      0.21185      0.09262      0.36209      0.15159      
600     0.41740    0.00809    0.00960    0.07454      0.36625      0.18560      0.06086      0.35353      0.13355      
700     0.40053    0.00817    0.00972    0.07486      0.34980      0.17872      0.06888      0.32576      0.12787      
800     0.38739    0.00821    0.00981    0.07095      0.33894      0.16252      0.06354      0.33323      0.12742      
900     0.37731    0.00826    0.00989    0.05935      0.33210      0.15197      0.05943      0.34583      0.11169      
1000    0.36584    0.00832    0.00999    0.06859      0.31904      0.14771      0.06745      0.31076      0.11381      
1100    0.35199    0.00838    0.01009    0.05069      0.30865      0.14733      0.04852      0.31617      0.11449      
1200    0.34599    0.00844    0.01018    0.05376      0.30311      0.13512      0.04606      0.30655      0.10350      
1300    0.34279    0.00848    0.01026    0.07124      0.29614      0.13661      0.05663      0.29834      0.10087      
1400    0.33507    0.00855    0.01036    0.05847      0.29136      0.13098      0.05235      0.29951      0.10231      
1500    0.32941    0.00861    0.01046    0.05638      0.28620      0.12864      0.04662      0.31066      0.10101      
1600    0.32222    0.00866    0.01054    0.04403      0.28154      0.12671      0.04143      0.31243      0.10164      
1700    0.31948    0.00870    0.01061    0.05117      0.27778      0.12162      0.04596      0.30490      0.10209      
1800    0.31716    0.00876    0.01069    0.05281      0.27566      0.11487      0.04869      0.30144      0.09328      
1900    0.31108    0.00880    0.01078    0.04461      0.27106      0.11521      0.03567      0.28823      0.09018      
2000    0.30763    0.00888    0.01086    0.04236      0.26815      0.11270      0.03730      0.28417      0.09290      
2100    0.30397    0.00895    0.01096    0.04497      0.26388      0.11182      0.03899      0.29571      0.09647      
2200    0.30201    0.00902    0.01107    0.04116      0.26240      0.11293      0.03644      0.29189      0.10313      
2300    0.29768    0.00907    0.01115    0.03700      0.25887      0.11182      0.03443      0.29689      0.09084      
2400    0.29496    0.00913    0.01124    0.05414      0.25329      0.10470      0.04727      0.28507      0.08689      
2500    0.29217    0.00919    0.01133    0.04005      0.25286      0.10787      0.03328      0.27871      0.09385      
2600    0.29264    0.00924    0.01141    0.04189      0.25324      0.10378      0.03698      0.28672      0.09246      
2700    0.28998    0.00930    0.01148    0.04374      0.25015      0.10303      0.03709      0.27990      0.09184      
2800    0.28883    0.00936    0.01158    0.03985      0.24978      0.10140      0.03659      0.27891      0.08857      
2900    0.28471    0.00941    0.01165    0.03687      0.24645      0.09832      0.02902      0.25862      0.07984      
3000    0.28384    0.00948    0.01173    0.03060      0.24650      0.10018      0.02895      0.28422      0.09361      
3100    0.28168    0.00953    0.01182    0.04011      0.24224      0.10061      0.03449      0.30166      0.09528      
3200    0.27962    0.00957    0.01188    0.03676      0.24094      0.09880      0.03325      0.28085      0.09160      
3300    0.27755    0.00962    0.01197    0.03791      0.23892      0.09462      0.03608      0.28879      0.08602      
3400    0.27443    0.00966    0.01203    0.03597      0.23588      0.09672      0.03439      0.29046      0.09444      
3500    0.27423    0.00971    0.01211    0.03660      0.23549      0.09605      0.03455      0.29344      0.09102      
3600    0.27344    0.00975    0.01217    0.03508      0.23499      0.09505      0.03245      0.29843      0.09523      
3700    0.27136    0.00980    0.01223    0.03503      0.23267      0.09656      0.03491      0.29099      0.09413      
3800    0.26874    0.00986    0.01230    0.03360      0.23057      0.09295      0.03377      0.30409      0.09553      
3900    0.26767    0.00991    0.01237    0.03212      0.23013      0.08829      0.02959      0.29279      0.08802      
4000    0.26447    0.00998    0.01247    0.02818      0.22749      0.08897      0.02664      0.25261      0.07961      
4100    0.26459    0.01000    0.01252    0.03628      0.22593      0.08873      0.03184      0.28906      0.08807      
4200    0.26277    0.01006    0.01261    0.03158      0.22500      0.08778      0.02997      0.26797      0.08143      
4300    0.26282    0.01011    0.01268    0.03193      0.22442      0.09222      0.02926      0.28944      0.09220      
4400    0.26167    0.01017    0.01277    0.03119      0.22368      0.08814      0.02909      0.30800      0.09249      
4500    0.26081    0.01022    0.01284    0.02709      0.22357      0.08755      0.02889      0.29118      0.09359      
4600    0.25872    0.01027    0.01293    0.03169      0.22022      0.08964      0.02862      0.29673      0.09020      
4700    0.25773    0.01032    0.01300    0.02834      0.21997      0.08767      0.02581      0.27724      0.08510      
4800    0.25621    0.01037    0.01307    0.02766      0.21835      0.08894      0.02542      0.25947      0.07882      
4900    0.25502    0.01042    0.01314    0.02967      0.21684      0.08694      0.02616      0.25652      0.07819      
5000    0.25314    0.01048    0.01321    0.02499      0.21632      0.08128      0.02385      0.25875      0.07573      
5100    0.25322    0.01052    0.01329    0.02956      0.21518      0.08314      0.02788      0.26059      0.07475      
5200    0.25230    0.01055    0.01334    0.02880      0.21411      0.08526      0.02776      0.25258      0.07518      
5300    0.25101    0.01060    0.01340    0.02757      0.21301      0.08497      0.02568      0.25365      0.07353      
5400    0.24971    0.01063    0.01345    0.02867      0.21164      0.08252      0.02575      0.27024      0.08100      
5500    0.24845    0.01068    0.01354    0.02954      0.21009      0.08227      0.02665      0.26185      0.07983      
5600    0.24733    0.01073    0.01361    0.02733      0.20925      0.08276      0.02492      0.25259      0.07670      
5700    0.24660    0.01079    0.01369    0.02667      0.20860      0.08191      0.02568      0.24111      0.07471      
5800    0.24510    0.01082    0.01374    0.02590      0.20705      0.08309      0.02320      0.23032      0.07180      
5900    0.24463    0.01086    0.01380    0.02692      0.20663      0.07942      0.02552      0.23458      0.07053      
6000    0.24314    0.01091    0.01387    0.02360      0.20570      0.07934      0.02224      0.24206      0.07351      
6100    0.24280    0.01094    0.01393    0.02551      0.20457      0.08262      0.02435      0.24044      0.07385      
6200    0.24264    0.01100    0.01401    0.02515      0.20473      0.07878      0.02437      0.21282      0.06421      
6300    0.24088    0.01103    0.01405    0.02378      0.20316      0.07890      0.02181      0.22597      0.06926      
6400    0.24184    0.01108    0.01412    0.02358      0.20362      0.08304      0.02178      0.20442      0.06513      
6500    0.24131    0.01112    0.01419    0.02639      0.20294      0.07787      0.02292      0.21046      0.06509      
6600    0.23995    0.01117    0.01428    0.02368      0.20187      0.07895      0.02314      0.20189      0.06316      
6700    0.23852    0.01120    0.01432    0.02499      0.20026      0.07750      0.02256      0.20759      0.06599      
6800    0.23741    0.01122    0.01433    0.02435      0.19898      0.08013      0.02195      0.20005      0.06274      
6900    0.23759    0.01126    0.01439    0.02357      0.19951      0.07719      0.02127      0.19622      0.06189      
7000    0.23599    0.01129    0.01443    0.02460      0.19763      0.07719      0.02188      0.19817      0.06265      
7100    0.23533    0.01131    0.01448    0.02313      0.19727      0.07647      0.02260      0.20526      0.06340      
7200    0.23468    0.01135    0.01453    0.02307      0.19669      0.07495      0.02241      0.20316      0.06041      
7300    0.23424    0.01138    0.01459    0.02405      0.19571      0.07760      0.02208      0.20680      0.06350      
7400    0.23318    0.01142    0.01466    0.02414      0.19438      0.07893      0.02071      0.21482      0.06560      
7500    0.23289    0.01145    0.01470    0.02409      0.19457      0.07354      0.02461      0.19829      0.05878      
7600    0.23249    0.01147    0.01475    0.02391      0.19406      0.07425      0.02189      0.21059      0.06298      
7700    0.23218    0.01151    0.01482    0.02407      0.19350      0.07542      0.02363      0.21178      0.06569      
7800    0.23123    0.01153    0.01485    0.02318      0.19276      0.07464      0.02180      0.19864      0.06176      
7900    0.23080    0.01154    0.01487    0.02431      0.19195      0.07581      0.02184      0.20827      0.06548      
8000    0.22987    0.01158    0.01493    0.02003      0.19179      0.07569      0.01833      0.21659      0.06559      
8100    0.22936    0.01160    0.01498    0.02212      0.19077      0.07587      0.01978      0.22079      0.06749      
8200    0.22876    0.01164    0.01504    0.02490      0.18967      0.07434      0.02252      0.21655      0.07010      
8300    0.22840    0.01168    0.01510    0.02439      0.18940      0.07343      0.02335      0.22631      0.06962      
8400    0.22820    0.01172    0.01515    0.02084      0.18983      0.07332      0.01914      0.23002      0.07023      
8500    0.22748    0.01174    0.01519    0.02161      0.18892      0.07310      0.01963      0.21801      0.06466      
8600    0.22657    0.01177    0.01522    0.02048      0.18817      0.07311      0.02006      0.21800      0.06651      
8700    0.22608    0.01180    0.01526    0.02122      0.18748      0.07294      0.01998      0.21589      0.06629      
8800    0.22499    0.01181    0.01529    0.01979      0.18668      0.07250      0.01708      0.21447      0.06333      
8900    0.22473    0.01186    0.01535    0.02036      0.18638      0.07074      0.01894      0.21180      0.06133      
9000    0.22405    0.01188    0.01537    0.02393      0.18483      0.07187      0.02270      0.21556      0.06777      
9100    0.22324    0.01189    0.01540    0.02211      0.18426      0.07274      0.01981      0.20897      0.06409      
9200    0.22329    0.01194    0.01548    0.02357      0.18399      0.07165      0.02289      0.20832      0.06337      
9300    0.22234    0.01197    0.01552    0.01933      0.18377      0.07210      0.01740      0.20012      0.06344      
9400    0.22194    0.01199    0.01556    0.02060      0.18322      0.07058      0.01871      0.20995      0.06613      
9500    0.22187    0.01200    0.01559    0.02212      0.18268      0.07171      0.02054      0.20120      0.06256      
9600    0.22115    0.01204    0.01564    0.02169      0.18220      0.06933      0.01976      0.19578      0.05909      
9700    0.21992    0.01207    0.01568    0.01973      0.18107      0.07152      0.01828      0.19601      0.06011      
9800    0.21999    0.01209    0.01571    0.02166      0.18065      0.07213      0.01941      0.19881      0.05946      
9900    0.22029    0.01213    0.01577    0.02279      0.18077      0.07059      0.02019      0.20283      0.06071      
10000   0.21921    0.01215    0.01580    0.02177      0.18009      0.06823      0.02029      0.20167      0.05940      
10100   0.21927    0.01216    0.01582    0.02235      0.17980      0.07028      0.01942      0.20259      0.06095      
10200   0.21882    0.01219    0.01587    0.01979      0.17985      0.06951      0.01808      0.20176      0.06204      
10300   0.21802    0.01222    0.01592    0.01851      0.17932      0.06863      0.01710      0.20032      0.06085      
10400   0.21759    0.01224    0.01594    0.02158      0.17817      0.06915      0.02069      0.20634      0.06300      
10500   0.21767    0.01225    0.01595    0.01887      0.17868      0.07002      0.01706      0.20796      0.06226      
10600   0.21710    0.01227    0.01599    0.02056      0.17778      0.06937      0.01840      0.20355      0.06136      
10700   0.21612    0.01231    0.01605    0.01922      0.17714      0.06780      0.01803      0.20434      0.05892      
10800   0.21596    0.01232    0.01607    0.02261      0.17630      0.06750      0.02051      0.20270      0.06062      
10900   0.21538    0.01235    0.01612    0.02028      0.17628      0.06575      0.01731      0.20207      0.05994      
11000   0.21509    0.01234    0.01611    0.01922      0.17603      0.06753      0.01797      0.19649      0.05964      
11100   0.21507    0.01238    0.01616    0.01949      0.17575      0.06880      0.01776      0.19321      0.06169      
11200   0.21460    0.01241    0.01619    0.01914      0.17521      0.06961      0.01836      0.19749      0.06081      
11300   0.21404    0.01241    0.01620    0.01850      0.17515      0.06578      0.01746      0.20271      0.05806      
11400   0.21355    0.01243    0.01624    0.01844      0.17451      0.06697      0.01779      0.20257      0.05828      
11500   0.21321    0.01243    0.01625    0.02010      0.17377      0.06743      0.01897      0.19550      0.05775      
11600   0.21288    0.01246    0.01628    0.01909      0.17374      0.06584      0.01712      0.19470      0.05756      
11700   0.21287    0.01246    0.01628    0.01832      0.17369      0.06786      0.01785      0.19239      0.05963      
11800   0.21199    0.01247    0.01630    0.01841      0.17301      0.06523      0.01682      0.19193      0.05680      
11900   0.21237    0.01247    0.01631    0.01986      0.17293      0.06679      0.01753      0.19952      0.06035      
12000   0.21181    0.01248    0.01634    0.01928      0.17243      0.06708      0.01798      0.19627      0.05856      
12100   0.21136    0.01252    0.01638    0.01898      0.17206      0.06603      0.01682      0.18988      0.05755      
12200   0.21156    0.01252    0.01641    0.02012      0.17209      0.06518      0.01903      0.19741      0.05902      
12300   0.21064    0.01254    0.01643    0.01844      0.17157      0.06422      0.01702      0.19335      0.05619      
12400   0.21050    0.01254    0.01645    0.01848      0.17125      0.06554      0.01659      0.18969      0.05613      
12500   0.21047    0.01256    0.01647    0.01891      0.17112      0.06538      0.01798      0.19320      0.05726      
12600   0.20995    0.01257    0.01650    0.01879      0.17066      0.06468      0.01642      0.18964      0.05720      
12700   0.20961    0.01258    0.01652    0.01807      0.17043      0.06464      0.01521      0.19126      0.05634      
12800   0.20926    0.01259    0.01653    0.01741      0.17015      0.06513      0.01611      0.19229      0.05628      
12900   0.20929    0.01259    0.01655    0.01712      0.17018      0.06550      0.01595      0.19333      0.05899      
13000   0.20884    0.01257    0.01654    0.01791      0.16963      0.06526      0.01632      0.19556      0.06235      
13100   0.20813    0.01257    0.01655    0.01921      0.16876      0.06401      0.01753      0.19493      0.05677      
13200   0.20768    0.01259    0.01657    0.01758      0.16868      0.06325      0.01537      0.19325      0.05476      
13300   0.20700    0.01258    0.01657    0.01684      0.16815      0.06329      0.01552      0.19195      0.05513      
13400   0.20693    0.01259    0.01657    0.01678      0.16792      0.06488      0.01574      0.19177      0.05710      
13500   0.20646    0.01261    0.01660    0.01729      0.16733      0.06459      0.01580      0.19051      0.05758      
13600   0.20664    0.01260    0.01660    0.01842      0.16741      0.06344      0.01636      0.19133      0.05674      
13700   0.20606    0.01263    0.01662    0.01761      0.16698      0.06311      0.01687      0.19362      0.05660      
13800   0.20601    0.01264    0.01664    0.01827      0.16682      0.06256      0.01738      0.19164      0.05758      
13900   0.20549    0.01264    0.01663    0.01744      0.16645      0.06278      0.01566      0.19393      0.05552      
14000   0.20522    0.01264    0.01663    0.01885      0.16597      0.06213      0.01677      0.18278      0.05467      
14100   0.20487    0.01263    0.01662    0.01912      0.16549      0.06302      0.01714      0.19301      0.05567      
14200   0.20457    0.01262    0.01662    0.01777      0.16548      0.06291      0.01607      0.20037      0.05667      
14300   0.20413    0.01261    0.01660    0.01833      0.16494      0.06315      0.01761      0.20204      0.05869      
14400   0.20361    0.01261    0.01659    0.01859      0.16452      0.06175      0.01669      0.19346      0.05516      
14500   0.20313    0.01260    0.01658    0.01710      0.16436      0.06170      0.01511      0.19633      0.05651      
14600   0.20285    0.01259    0.01657    0.01824      0.16375      0.06290      0.01698      0.19040      0.05597      
14700   0.20276    0.01260    0.01658    0.01762      0.16384      0.06215      0.01486      0.19382      0.05709      
14800   0.20253    0.01258    0.01656    0.01781      0.16364      0.06188      0.01674      0.18975      0.05394      
14900   0.20235    0.01260    0.01657    0.01600      0.16366      0.06316      0.01419      0.19388      0.05648      
15000   0.20212    0.01262    0.01660    0.01791      0.16302      0.06301      0.01675      0.19263      0.05669      
15100   0.20198    0.01262    0.01661    0.01723      0.16296      0.06340      0.01498      0.19525      0.05599      
15200   0.20175    0.01261    0.01659    0.01577      0.16299      0.06399      0.01435      0.19617      0.05578      
15300   0.20151    0.01259    0.01655    0.01750      0.16264      0.06230      0.01610      0.19025      0.05425      
15400   0.20115    0.01259    0.01657    0.01668      0.16236      0.06298      0.01519      0.19756      0.05882      
15500   0.20068    0.01260    0.01658    0.01645      0.16190      0.06309      0.01523      0.19609      0.05795      
15600   0.20070    0.01259    0.01658    0.01629      0.16202      0.06263      0.01419      0.19021      0.05507      
15700   0.20042    0.01259    0.01656    0.01642      0.16176      0.06220      0.01432      0.19421      0.05514      
15800   0.20021    0.01259    0.01657    0.01629      0.16164      0.06153      0.01431      0.19027      0.05432      
15900   0.19997    0.01256    0.01654    0.01582      0.16153      0.06175      0.01402      0.19089      0.05451      
16000   0.19960    0.01255    0.01652    0.01603      0.16124      0.06090      0.01467      0.18873      0.05402      
16100   0.19934    0.01256    0.01651    0.01604      0.16092      0.06147      0.01474      0.18597      0.05392      
16200   0.19958    0.01256    0.01653    0.01697      0.16104      0.06050      0.01493      0.18544      0.05294      
16300   0.19925    0.01254    0.01652    0.01769      0.16054      0.06113      0.01614      0.18402      0.05328      
16400   0.19903    0.01253    0.01651    0.01733      0.16042      0.06110      0.01604      0.18667      0.05383      
16500   0.19834    0.01251    0.01649    0.01586      0.16011      0.06057      0.01450      0.18034      0.05265      
16600   0.19836    0.01251    0.01649    0.01519      0.16022      0.06100      0.01369      0.17799      0.05206      
16700   0.19810    0.01249    0.01646    0.01602      0.15984      0.06102      0.01427      0.17984      0.05231      
16800   0.19805    0.01249    0.01645    0.01643      0.15959      0.06230      0.01503      0.18099      0.05501      
16900   0.19743    0.01247    0.01644    0.01606      0.15929      0.06022      0.01354      0.18550      0.05221      
17000   0.19749    0.01246    0.01643    0.01619      0.15927      0.06091      0.01408      0.18480      0.05377      
17100   0.19710    0.01245    0.01643    0.01604      0.15892      0.06097      0.01481      0.18410      0.05228      
17200   0.19698    0.01242    0.01639    0.01567      0.15896      0.06082      0.01379      0.18656      0.05369      
17300   0.19668    0.01241    0.01636    0.01652      0.15851      0.06088      0.01459      0.18714      0.05430      
17400   0.19656    0.01242    0.01637    0.01709      0.15839      0.05969      0.01538      0.18159      0.05157      
17500   0.19633    0.01240    0.01634    0.01597      0.15836      0.06037      0.01402      0.18751      0.05279      
17600   0.19588    0.01238    0.01634    0.01563      0.15804      0.06001      0.01422      0.18762      0.05370      
17700   0.19595    0.01238    0.01635    0.01626      0.15793      0.06038      0.01475      0.18808      0.05458      
17800   0.19568    0.01236    0.01632    0.01648      0.15764      0.06054      0.01423      0.19271      0.05425      
17900   0.19526    0.01235    0.01629    0.01512      0.15760      0.05997      0.01327      0.18868      0.05382      
18000   0.19504    0.01234    0.01630    0.01525      0.15734      0.06019      0.01323      0.19281      0.05373      
18100   0.19506    0.01232    0.01627    0.01631      0.15717      0.06027      0.01544      0.19152      0.05385      
18200   0.19505    0.01231    0.01628    0.01538      0.15740      0.05983      0.01367      0.19058      0.05352      
18300   0.19462    0.01231    0.01628    0.01576      0.15685      0.06020      0.01429      0.18427      0.05145      
18400   0.19442    0.01232    0.01631    0.01580      0.15670      0.05932      0.01363      0.18642      0.05158      
18500   0.19411    0.01231    0.01629    0.01488      0.15665      0.05891      0.01344      0.18340      0.05187      
18600   0.19413    0.01232    0.01631    0.01640      0.15634      0.05885      0.01370      0.19115      0.05266      
18700   0.19379    0.01230    0.01629    0.01576      0.15613      0.05915      0.01387      0.18836      0.05246      
18800   0.19355    0.01228    0.01626    0.01535      0.15608      0.05866      0.01425      0.18834      0.05229      
18900   0.19333    0.01226    0.01626    0.01478      0.15599      0.05866      0.01335      0.19040      0.05332      
19000   0.19303    0.01224    0.01622    0.01545      0.15560      0.05872      0.01390      0.19021      0.05227      
19100   0.19284    0.01223    0.01622    0.01514      0.15548      0.05886      0.01302      0.19139      0.05229      
19200   0.19268    0.01221    0.01620    0.01516      0.15536      0.05872      0.01355      0.19554      0.05317      
19300   0.19252    0.01221    0.01619    0.01579      0.15507      0.05892      0.01393      0.19511      0.05302      
19400   0.19225    0.01217    0.01614    0.01547      0.15488      0.05952      0.01334      0.19453      0.05315      
19500   0.19213    0.01216    0.01612    0.01509      0.15486      0.05965      0.01383      0.19793      0.05472      
19600   0.19170    0.01216    0.01612    0.01462      0.15455      0.05952      0.01309      0.19642      0.05483      
19700   0.19168    0.01213    0.01609    0.01551      0.15448      0.05869      0.01374      0.19576      0.05329      
19800   0.19138    0.01212    0.01609    0.01507      0.15428      0.05877      0.01327      0.19413      0.05311      
19900   0.19115    0.01210    0.01606    0.01532      0.15404      0.05895      0.01306      0.19476      0.05356      
20000   0.19096    0.01208    0.01605    0.01508      0.15399      0.05829      0.01358      0.19702      0.05430      
20100   0.19064    0.01206    0.01603    0.01480      0.15374      0.05848      0.01279      0.19776      0.05471      
20200   0.19038    0.01203    0.01598    0.01498      0.15349      0.05874      0.01343      0.19273      0.05381      
20300   0.19012    0.01200    0.01596    0.01550      0.15324      0.05810      0.01379      0.19544      0.05174      
20400   0.18998    0.01199    0.01594    0.01453      0.15330      0.05843      0.01306      0.19487      0.05294      
20500   0.18981    0.01198    0.01594    0.01448      0.15315      0.05841      0.01270      0.19763      0.05429      
20600   0.18960    0.01196    0.01591    0.01494      0.15289      0.05846      0.01350      0.19667      0.05429      
20700   0.18958    0.01193    0.01587    0.01524      0.15290      0.05825      0.01343      0.19487      0.05302      
20800   0.18925    0.01192    0.01587    0.01518      0.15258      0.05834      0.01336      0.19048      0.05268      
20900   0.18904    0.01189    0.01584    0.01513      0.15253      0.05753      0.01359      0.19168      0.05258      
21000   0.18882    0.01187    0.01582    0.01579      0.15223      0.05749      0.01315      0.19195      0.05178      
21100   0.18858    0.01185    0.01579    0.01428      0.15230      0.05792      0.01253      0.19302      0.05263      
21200   0.18850    0.01185    0.01579    0.01443      0.15203      0.05948      0.01340      0.19482      0.05415      
21300   0.18826    0.01185    0.01581    0.01461      0.15186      0.05820      0.01264      0.20056      0.05501      
21400   0.18791    0.01182    0.01578    0.01457      0.15158      0.05815      0.01259      0.19841      0.05454      
21500   0.18789    0.01182    0.01578    0.01446      0.15160      0.05798      0.01280      0.21277      0.05785      
21600   0.18781    0.01181    0.01577    0.01431      0.15158      0.05789      0.01271      0.20852      0.05629      
21700   0.18743    0.01180    0.01574    0.01425      0.15128      0.05765      0.01229      0.21660      0.05788      
21800   0.18727    0.01176    0.01571    0.01481      0.15104      0.05800      0.01297      0.20273      0.05502      
21900   0.18704    0.01174    0.01570    0.01485      0.15080      0.05830      0.01268      0.19760      0.05532      
22000   0.18697    0.01173    0.01569    0.01499      0.15076      0.05780      0.01312      0.18720      0.05204      
22100   0.18690    0.01174    0.01570    0.01453      0.15077      0.05789      0.01254      0.18913      0.05159      
22200   0.18667    0.01172    0.01567    0.01462      0.15063      0.05733      0.01262      0.19348      0.05279      
22300   0.18630    0.01168    0.01564    0.01458      0.15028      0.05781      0.01324      0.19187      0.05258      
22400   0.18637    0.01166    0.01562    0.01424      0.15050      0.05747      0.01323      0.19485      0.05256      
22500   0.18604    0.01164    0.01560    0.01378      0.15023      0.05812      0.01234      0.19456      0.05456      
22600   0.18599    0.01163    0.01558    0.01453      0.15015      0.05729      0.01314      0.19588      0.05315      
22700   0.18574    0.01160    0.01554    0.01458      0.14998      0.05711      0.01311      0.20017      0.05433      
22800   0.18555    0.01158    0.01552    0.01441      0.14983      0.05736      0.01325      0.19995      0.05583      
22900   0.18532    0.01156    0.01550    0.01457      0.14966      0.05688      0.01346      0.19424      0.05294      
23000   0.18512    0.01154    0.01549    0.01462      0.14950      0.05671      0.01309      0.19030      0.05133      
23100   0.18505    0.01152    0.01546    0.01440      0.14944      0.05750      0.01240      0.18687      0.05146      
23200   0.18488    0.01149    0.01543    0.01458      0.14936      0.05688      0.01276      0.18943      0.05097      
23300   0.18467    0.01150    0.01543    0.01412      0.14920      0.05717      0.01261      0.18792      0.05288      
23400   0.18468    0.01147    0.01541    0.01429      0.14924      0.05707      0.01267      0.18995      0.05163      
23500   0.18446    0.01146    0.01540    0.01444      0.14904      0.05670      0.01328      0.19175      0.05258      
23600   0.18417    0.01144    0.01539    0.01411      0.14883      0.05689      0.01275      0.18839      0.05166      
23700   0.18412    0.01142    0.01537    0.01412      0.14885      0.05657      0.01247      0.19233      0.05260      
23800   0.18387    0.01140    0.01534    0.01417      0.14861      0.05680      0.01286      0.19373      0.05264      
23900   0.18367    0.01135    0.01529    0.01419      0.14851      0.05678      0.01259      0.19277      0.05251      
24000   0.18349    0.01132    0.01525    0.01438      0.14842      0.05618      0.01199      0.19575      0.05282      
24100   0.18345    0.01130    0.01525    0.01389      0.14843      0.05693      0.01240      0.19891      0.05463      
24200   0.18312    0.01128    0.01522    0.01413      0.14816      0.05640      0.01269      0.20919      0.05639      
24300   0.18309    0.01125    0.01519    0.01399      0.14822      0.05633      0.01285      0.20995      0.05691      
24400   0.18291    0.01124    0.01516    0.01478      0.14791      0.05644      0.01343      0.21225      0.05672      
24500   0.18268    0.01122    0.01514    0.01397      0.14789      0.05638      0.01321      0.21956      0.05993      
24600   0.18264    0.01121    0.01514    0.01452      0.14780      0.05594      0.01362      0.22728      0.06062      
24700   0.18243    0.01119    0.01512    0.01398      0.14775      0.05569      0.01318      0.23256      0.06148      
24800   0.18213    0.01116    0.01508    0.01400      0.14753      0.05560      0.01327      0.23096      0.06122      
24900   0.18211    0.01114    0.01507    0.01411      0.14747      0.05598      0.01363      0.23485      0.06259      
25000   0.18199    0.01112    0.01505    0.01387      0.14741      0.05641      0.01299      0.23280      0.06129      
25100   0.18171    0.01110    0.01501    0.01403      0.14719      0.05602      0.01347      0.23192      0.06124      
25200   0.18169    0.01107    0.01498    0.01415      0.14722      0.05593      0.01321      0.22909      0.06142      
25300   0.18145    0.01105    0.01497    0.01400      0.14706      0.05567      0.01365      0.23011      0.06054      
25400   0.18137    0.01104    0.01495    0.01378      0.14707      0.05560      0.01363      0.23062      0.05991      
25500   0.18118    0.01102    0.01494    0.01377      0.14684      0.05617      0.01330      0.22567      0.05999      
25600   0.18099    0.01097    0.01488    0.01396      0.14673      0.05604      0.01310      0.22413      0.05968      
25700   0.18075    0.01095    0.01487    0.01361      0.14663      0.05572      0.01314      0.22299      0.05840      
25800   0.18052    0.01094    0.01486    0.01390      0.14640      0.05537      0.01356      0.22354      0.05915      
25900   0.18044    0.01093    0.01485    0.01359      0.14635      0.05589      0.01339      0.22045      0.05913      
26000   0.18028    0.01092    0.01483    0.01400      0.14615      0.05574      0.01330      0.21794      0.05798      
26100   0.18003    0.01090    0.01481    0.01377      0.14601      0.05564      0.01323      0.22631      0.05999      
26200   0.17989    0.01088    0.01479    0.01396      0.14593      0.05509      0.01273      0.22681      0.05959      
26300   0.17984    0.01085    0.01476    0.01383      0.14593      0.05539      0.01242      0.22886      0.06124      
26400   0.17956    0.01083    0.01474    0.01336      0.14574      0.05582      0.01258      0.22953      0.06087      
26500   0.17948    0.01078    0.01470    0.01345      0.14580      0.05513      0.01320      0.23059      0.06058      
26600   0.17929    0.01077    0.01467    0.01360      0.14550      0.05630      0.01251      0.22920      0.06192      
26700   0.17918    0.01076    0.01467    0.01371      0.14551      0.05512      0.01288      0.22831      0.06116      
26800   0.17897    0.01074    0.01466    0.01347      0.14535      0.05532      0.01320      0.23045      0.06240      
26900   0.17883    0.01071    0.01462    0.01315      0.14530      0.05557      0.01264      0.22895      0.06058      
27000   0.17868    0.01070    0.01461    0.01331      0.14514      0.05572      0.01253      0.22634      0.06057      
27100   0.17855    0.01068    0.01458    0.01350      0.14506      0.05536      0.01306      0.22653      0.05997      
27200   0.17846    0.01066    0.01456    0.01355      0.14499      0.05539      0.01332      0.22579      0.06059      
27300   0.17832    0.01064    0.01454    0.01359      0.14489      0.05526      0.01306      0.22108      0.05884      
27400   0.17821    0.01063    0.01454    0.01365      0.14478      0.05531      0.01312      0.22253      0.05897      
27500   0.17816    0.01060    0.01451    0.01355      0.14483      0.05507      0.01305      0.22100      0.05855      
27600   0.17796    0.01057    0.01450    0.01345      0.14467      0.05528      0.01315      0.22147      0.05867      
27700   0.17784    0.01057    0.01448    0.01350      0.14461      0.05470      0.01322      0.22116      0.05850      
27800   0.17762    0.01054    0.01446    0.01374      0.14439      0.05471      0.01369      0.21874      0.05721      
27900   0.17755    0.01053    0.01444    0.01366      0.14436      0.05498      0.01325      0.21766      0.05766      
28000   0.17739    0.01049    0.01440    0.01372      0.14428      0.05478      0.01297      0.21827      0.05729      
28100   0.17727    0.01047    0.01437    0.01322      0.14427      0.05514      0.01287      0.21536      0.05655      
28200   0.17718    0.01044    0.01434    0.01336      0.14423      0.05502      0.01253      0.21902      0.05806      
28300   0.17705    0.01042    0.01431    0.01328      0.14419      0.05475      0.01289      0.21787      0.05685      
28400   0.17690    0.01041    0.01430    0.01311      0.14404      0.05537      0.01247      0.22057      0.05930      
28500   0.17671    0.01038    0.01427    0.01326      0.14398      0.05435      0.01267      0.22335      0.05818      
28600   0.17657    0.01035    0.01423    0.01314      0.14390      0.05466      0.01257      0.21867      0.05655      
28700   0.17647    0.01032    0.01421    0.01352      0.14380      0.05439      0.01326      0.22103      0.05797      
28800   0.17624    0.01029    0.01416    0.01342      0.14364      0.05467      0.01270      0.21511      0.05605      
28900   0.17611    0.01026    0.01413    0.01337      0.14358      0.05459      0.01231      0.22013      0.05712      
29000   0.17595    0.01023    0.01410    0.01336      0.14347      0.05478      0.01260      0.22054      0.05737      
29100   0.17578    0.01022    0.01408    0.01316      0.14337      0.05471      0.01294      0.22313      0.05834      
29200   0.17562    0.01019    0.01404    0.01326      0.14327      0.05465      0.01228      0.22064      0.05794      
29300   0.17554    0.01018    0.01404    0.01335      0.14316      0.05491      0.01279      0.22570      0.05805      
29400   0.17539    0.01015    0.01400    0.01355      0.14309      0.05441      0.01301      0.22435      0.05863      
29500   0.17513    0.01012    0.01398    0.01304      0.14300      0.05419      0.01245      0.22777      0.05899      
29600   0.17513    0.01010    0.01395    0.01301      0.14306      0.05417      0.01253      0.22422      0.05800      
29700   0.17494    0.01008    0.01393    0.01308      0.14287      0.05441      0.01209      0.22464      0.05826      
29800   0.17490    0.01006    0.01391    0.01328      0.14285      0.05427      0.01300      0.22785      0.05854      
29900   0.17472    0.01003    0.01387    0.01330      0.14277      0.05390      0.01250      0.22495      0.05793      
30000   0.17463    0.01001    0.01385    0.01352      0.14264      0.05420      0.01260      0.22422      0.05787      
30100   0.17452    0.01001    0.01385    0.01307      0.14267      0.05384      0.01222      0.22527      0.05827      
30200   0.17445    0.00999    0.01384    0.01350      0.14254      0.05371      0.01275      0.22878      0.05881      
30300   0.17436    0.00999    0.01383    0.01327      0.14246      0.05418      0.01248      0.22697      0.05840      
30400   0.17419    0.00997    0.01381    0.01318      0.14234      0.05435      0.01253      0.22516      0.05774      
30500   0.17409    0.00997    0.01382    0.01305      0.14231      0.05386      0.01232      0.22141      0.05696      
30600   0.17400    0.00994    0.01379    0.01324      0.14225      0.05366      0.01252      0.22317      0.05704      
30700   0.17389    0.00992    0.01376    0.01308      0.14220      0.05402      0.01217      0.22350      0.05789      
30800   0.17373    0.00990    0.01374    0.01340      0.14203      0.05382      0.01287      0.22399      0.05742      
30900   0.17367    0.00987    0.01371    0.01321      0.14200      0.05438      0.01237      0.22282      0.05758      
31000   0.17352    0.00985    0.01369    0.01343      0.14190      0.05394      0.01252      0.22097      0.05660      
31100   0.17343    0.00981    0.01365    0.01346      0.14190      0.05370      0.01232      0.22256      0.05735      
31200   0.17324    0.00978    0.01362    0.01323      0.14182      0.05375      0.01231      0.21982      0.05660      
31300   0.17310    0.00977    0.01362    0.01306      0.14166      0.05431      0.01247      0.22046      0.05711      
31400   0.17304    0.00975    0.01360    0.01317      0.14169      0.05368      0.01225      0.22338      0.05694      
31500   0.17290    0.00973    0.01358    0.01348      0.14150      0.05395      0.01268      0.22527      0.05798      
31600   0.17282    0.00974    0.01358    0.01325      0.14146      0.05390      0.01222      0.22205      0.05739      
31700   0.17268    0.00970    0.01354    0.01312      0.14144      0.05367      0.01263      0.21711      0.05576      
31800   0.17257    0.00967    0.01352    0.01305      0.14142      0.05344      0.01227      0.22241      0.05650      
31900   0.17237    0.00966    0.01349    0.01271      0.14129      0.05387      0.01208      0.22198      0.05752      
32000   0.17230    0.00964    0.01347    0.01309      0.14120      0.05380      0.01232      0.22388      0.05725      
32100   0.17219    0.00961    0.01345    0.01279      0.14119      0.05370      0.01247      0.22289      0.05724      
32200   0.17208    0.00959    0.01341    0.01323      0.14106      0.05377      0.01291      0.22121      0.05686      
32300   0.17194    0.00957    0.01340    0.01303      0.14101      0.05364      0.01229      0.22404      0.05791      
32400   0.17180    0.00954    0.01337    0.01299      0.14093      0.05364      0.01246      0.22421      0.05828      
32500   0.17168    0.00952    0.01334    0.01314      0.14083      0.05358      0.01215      0.22304      0.05775      
32600   0.17159    0.00951    0.01333    0.01302      0.14080      0.05347      0.01224      0.22581      0.05888      
32700   0.17143    0.00948    0.01330    0.01299      0.14069      0.05363      0.01259      0.22413      0.05851      
32800   0.17130    0.00945    0.01327    0.01289      0.14065      0.05348      0.01236      0.22602      0.05876      
32900   0.17121    0.00943    0.01325    0.01307      0.14056      0.05363      0.01260      0.22706      0.06007      
33000   0.17107    0.00942    0.01324    0.01300      0.14046      0.05349      0.01211      0.22460      0.05923      
33100   0.17096    0.00941    0.01322    0.01296      0.14041      0.05329      0.01211      0.22403      0.05839      
33200   0.17085    0.00938    0.01319    0.01298      0.14034      0.05345      0.01196      0.22273      0.05855      
33300   0.17075    0.00937    0.01318    0.01284      0.14031      0.05332      0.01193      0.22166      0.05914      
33400   0.17070    0.00936    0.01317    0.01311      0.14020      0.05351      0.01190      0.22442      0.05986      
33500   0.17062    0.00933    0.01313    0.01295      0.14021      0.05358      0.01208      0.22257      0.05876      
33600   0.17051    0.00933    0.01313    0.01296      0.14011      0.05346      0.01149      0.22493      0.05970      
33700   0.17037    0.00930    0.01311    0.01274      0.14010      0.05317      0.01218      0.22511      0.05884      
33800   0.17028    0.00928    0.01308    0.01295      0.14000      0.05330      0.01186      0.22344      0.05899      
33900   0.17016    0.00924    0.01305    0.01284      0.13994      0.05362      0.01197      0.22258      0.05909      
34000   0.16999    0.00923    0.01304    0.01289      0.13981      0.05334      0.01204      0.22057      0.05884      
34100   0.16990    0.00921    0.01300    0.01297      0.13978      0.05312      0.01173      0.22424      0.06000      
34200   0.16982    0.00920    0.01300    0.01300      0.13970      0.05320      0.01180      0.22449      0.05945      
34300   0.16974    0.00919    0.01299    0.01272      0.13972      0.05301      0.01212      0.22200      0.05835      
34400   0.16958    0.00917    0.01297    0.01279      0.13959      0.05291      0.01210      0.22156      0.05830      
34500   0.16953    0.00915    0.01296    0.01282      0.13955      0.05317      0.01242      0.22234      0.05919      
34600   0.16942    0.00913    0.01295    0.01276      0.13951      0.05277      0.01202      0.21905      0.05747      
34700   0.16935    0.00912    0.01293    0.01286      0.13942      0.05313      0.01204      0.21819      0.05790      
34800   0.16926    0.00910    0.01291    0.01305      0.13936      0.05294      0.01232      0.22225      0.05812      
34900   0.16914    0.00908    0.01290    0.01315      0.13926      0.05278      0.01214      0.22154      0.05822      
35000   0.16896    0.00905    0.01286    0.01284      0.13920      0.05277      0.01153      0.22002      0.05812      
35100   0.16888    0.00903    0.01285    0.01273      0.13917      0.05286      0.01196      0.22099      0.05823      
35200   0.16877    0.00902    0.01283    0.01283      0.13908      0.05279      0.01200      0.22224      0.05845      
35300   0.16867    0.00900    0.01281    0.01295      0.13899      0.05288      0.01259      0.21716      0.05672      
35400   0.16855    0.00898    0.01279    0.01285      0.13895      0.05262      0.01174      0.21973      0.05698      
35500   0.16846    0.00895    0.01276    0.01291      0.13891      0.05260      0.01222      0.21752      0.05662      
35600   0.16835    0.00893    0.01275    0.01280      0.13883      0.05275      0.01171      0.21962      0.05745      
35700   0.16827    0.00892    0.01273    0.01270      0.13880      0.05279      0.01226      0.21944      0.05825      
35800   0.16817    0.00891    0.01271    0.01273      0.13874      0.05273      0.01165      0.22187      0.05814      
35900   0.16809    0.00888    0.01269    0.01290      0.13869      0.05243      0.01204      0.22185      0.05886      
36000   0.16803    0.00888    0.01268    0.01282      0.13864      0.05266      0.01192      0.22279      0.05917      
36100   0.16793    0.00886    0.01266    0.01283      0.13857      0.05268      0.01168      0.22476      0.05896      
36200   0.16787    0.00885    0.01265    0.01279      0.13853      0.05285      0.01191      0.22191      0.05877      
36300   0.16772    0.00883    0.01264    0.01280      0.13841      0.05277      0.01215      0.22408      0.05941      
36400   0.16765    0.00881    0.01262    0.01286      0.13840      0.05243      0.01218      0.22762      0.06020      
36500   0.16754    0.00879    0.01260    0.01292      0.13831      0.05247      0.01224      0.22422      0.05888      
36600   0.16742    0.00875    0.01258    0.01275      0.13828      0.05250      0.01231      0.22597      0.05879      
36700   0.16738    0.00873    0.01255    0.01291      0.13826      0.05253      0.01223      0.22243      0.05894      
36800   0.16729    0.00872    0.01254    0.01293      0.13820      0.05246      0.01178      0.22422      0.05952      
36900   0.16720    0.00870    0.01253    0.01278      0.13814      0.05274      0.01231      0.22424      0.05899      
37000   0.16710    0.00869    0.01251    0.01290      0.13807      0.05254      0.01211      0.22197      0.05849      
37100   0.16703    0.00867    0.01249    0.01262      0.13809      0.05260      0.01177      0.21652      0.05710      
37200   0.16693    0.00865    0.01248    0.01264      0.13803      0.05245      0.01192      0.22113      0.05824      
37300   0.16681    0.00863    0.01245    0.01275      0.13793      0.05239      0.01160      0.21865      0.05829      
37400   0.16675    0.00860    0.01244    0.01272      0.13794      0.05222      0.01234      0.21932      0.05739      
37500   0.16667    0.00859    0.01243    0.01275      0.13787      0.05235      0.01225      0.22031      0.05798      
37600   0.16659    0.00858    0.01243    0.01271      0.13780      0.05233      0.01199      0.22418      0.05907      
37700   0.16649    0.00858    0.01242    0.01277      0.13770      0.05241      0.01185      0.22346      0.05876      
37800   0.16643    0.00856    0.01240    0.01264      0.13770      0.05237      0.01189      0.22179      0.05827      
37900   0.16636    0.00855    0.01239    0.01255      0.13767      0.05232      0.01192      0.21914      0.05710      
38000   0.16625    0.00852    0.01237    0.01258      0.13760      0.05235      0.01175      0.21672      0.05685      
38100   0.16617    0.00851    0.01236    0.01249      0.13757      0.05238      0.01186      0.21997      0.05838      
38200   0.16611    0.00850    0.01234    0.01268      0.13750      0.05226      0.01177      0.22137      0.05824      
38300   0.16601    0.00848    0.01232    0.01277      0.13742      0.05233      0.01178      0.22200      0.05801      
38400   0.16594    0.00847    0.01230    0.01256      0.13741      0.05247      0.01167      0.22131      0.05869      
38500   0.16581    0.00844    0.01228    0.01263      0.13734      0.05235      0.01145      0.22192      0.05853      
38600   0.16579    0.00842    0.01226    0.01284      0.13732      0.05223      0.01162      0.22236      0.05803      
38700   0.16572    0.00841    0.01224    0.01258      0.13732      0.05226      0.01169      0.22087      0.05729      
38800   0.16562    0.00840    0.01223    0.01261      0.13725      0.05226      0.01154      0.22184      0.05802      
38900   0.16557    0.00838    0.01222    0.01266      0.13721      0.05230      0.01166      0.22151      0.05781      
39000   0.16544    0.00836    0.01219    0.01261      0.13715      0.05223      0.01179      0.22228      0.05806      
39100   0.16539    0.00833    0.01217    0.01259      0.13716      0.05211      0.01148      0.22098      0.05782      
39200   0.16531    0.00833    0.01216    0.01252      0.13710      0.05213      0.01153      0.21996      0.05716      
39300   0.16522    0.00830    0.01215    0.01273      0.13702      0.05213      0.01192      0.22056      0.05752      
39400   0.16514    0.00828    0.01212    0.01261      0.13699      0.05232      0.01155      0.21905      0.05753      
39500   0.16504    0.00828    0.01211    0.01259      0.13693      0.05207      0.01157      0.21823      0.05704      
39600   0.16496    0.00824    0.01208    0.01256      0.13694      0.05187      0.01143      0.21851      0.05689      
39700   0.16483    0.00823    0.01207    0.01253      0.13683      0.05198      0.01143      0.21842      0.05711      
39800   0.16479    0.00822    0.01206    0.01254      0.13680      0.05206      0.01166      0.21752      0.05730      
39900   0.16472    0.00821    0.01204    0.01254      0.13676      0.05208      0.01135      0.21868      0.05699      
40000   0.16465    0.00819    0.01203    0.01256      0.13673      0.05184      0.01166      0.21990      0.05751      
40100   0.16457    0.00818    0.01202    0.01267      0.13663      0.05206      0.01171      0.22086      0.05773      
40200   0.16450    0.00816    0.01201    0.01260      0.13661      0.05197      0.01129      0.21941      0.05756      
40300   0.16445    0.00815    0.01199    0.01256      0.13659      0.05204      0.01136      0.21943      0.05769      
40400   0.16437    0.00814    0.01198    0.01265      0.13651      0.05216      0.01147      0.22039      0.05800      
40500   0.16427    0.00812    0.01196    0.01236      0.13653      0.05182      0.01134      0.22024      0.05799      
40600   0.16419    0.00810    0.01194    0.01242      0.13645      0.05223      0.01134      0.21913      0.05799      
40700   0.16411    0.00809    0.01193    0.01245      0.13641      0.05190      0.01155      0.21970      0.05734      
40800   0.16406    0.00808    0.01192    0.01248      0.13637      0.05190      0.01132      0.22006      0.05774      
40900   0.16399    0.00806    0.01190    0.01240      0.13639      0.05173      0.01142      0.22222      0.05801      
41000   0.16392    0.00805    0.01188    0.01249      0.13629      0.05198      0.01164      0.22018      0.05760      
41100   0.16384    0.00803    0.01186    0.01247      0.13627      0.05188      0.01168      0.22050      0.05772      
41200   0.16375    0.00801    0.01184    0.01237      0.13624      0.05199      0.01149      0.21974      0.05737      
41300   0.16370    0.00800    0.01183    0.01250      0.13618      0.05189      0.01159      0.21743      0.05681      
41400   0.16363    0.00799    0.01181    0.01240      0.13616      0.05195      0.01164      0.21857      0.05775      
41500   0.16353    0.00797    0.01179    0.01233      0.13610      0.05200      0.01173      0.21852      0.05726      
41600   0.16348    0.00795    0.01178    0.01249      0.13607      0.05182      0.01147      0.21881      0.05730      
41700   0.16339    0.00793    0.01176    0.01245      0.13604      0.05167      0.01170      0.22001      0.05753      
41800   0.16335    0.00793    0.01175    0.01238      0.13602      0.05180      0.01162      0.21799      0.05707      
41900   0.16326    0.00791    0.01173    0.01250      0.13596      0.05165      0.01186      0.21751      0.05697      
42000   0.16316    0.00790    0.01173    0.01239      0.13589      0.05163      0.01148      0.21848      0.05771      
42100   0.16309    0.00787    0.01170    0.01238      0.13588      0.05164      0.01144      0.21865      0.05799      
42200   0.16301    0.00785    0.01168    0.01247      0.13581      0.05181      0.01164      0.21808      0.05774      
42300   0.16295    0.00784    0.01167    0.01237      0.13577      0.05187      0.01136      0.21752      0.05738      
42400   0.16291    0.00783    0.01166    0.01242      0.13577      0.05170      0.01132      0.21866      0.05746      
42500   0.16285    0.00782    0.01165    0.01245      0.13573      0.05168      0.01156      0.21964      0.05765      
42600   0.16276    0.00780    0.01163    0.01240      0.13568      0.05167      0.01143      0.22100      0.05779      
42700   0.16270    0.00779    0.01162    0.01254      0.13559      0.05184      0.01176      0.22158      0.05835      
42800   0.16265    0.00778    0.01161    0.01248      0.13558      0.05187      0.01136      0.22283      0.05836      
42900   0.16257    0.00776    0.01159    0.01247      0.13554      0.05186      0.01169      0.22205      0.05783      
43000   0.16253    0.00775    0.01158    0.01256      0.13550      0.05175      0.01175      0.22233      0.05791      
43100   0.16247    0.00774    0.01158    0.01245      0.13550      0.05171      0.01150      0.22090      0.05797      
43200   0.16241    0.00773    0.01156    0.01250      0.13544      0.05175      0.01140      0.21949      0.05737      
43300   0.16233    0.00772    0.01154    0.01240      0.13542      0.05167      0.01150      0.21868      0.05713      
43400   0.16227    0.00770    0.01153    0.01240      0.13539      0.05167      0.01139      0.22115      0.05754      
43500   0.16222    0.00769    0.01152    0.01232      0.13536      0.05183      0.01138      0.21974      0.05717      
43600   0.16216    0.00768    0.01151    0.01233      0.13533      0.05175      0.01141      0.21980      0.05683      
43700   0.16208    0.00766    0.01150    0.01239      0.13526      0.05185      0.01146      0.21989      0.05695      
43800   0.16201    0.00765    0.01148    0.01235      0.13524      0.05164      0.01141      0.21960      0.05710      
43900   0.16194    0.00763    0.01147    0.01225      0.13522      0.05167      0.01151      0.22065      0.05740      
44000   0.16190    0.00762    0.01146    0.01244      0.13518      0.05151      0.01167      0.22099      0.05768      
44100   0.16184    0.00762    0.01145    0.01229      0.13514      0.05165      0.01132      0.22093      0.05742      
44200   0.16177    0.00760    0.01143    0.01234      0.13512      0.05161      0.01136      0.22095      0.05752      
44300   0.16169    0.00758    0.01141    0.01232      0.13508      0.05159      0.01129      0.22155      0.05764      
44400   0.16164    0.00757    0.01140    0.01224      0.13506      0.05162      0.01136      0.22251      0.05777      
44500   0.16159    0.00756    0.01139    0.01232      0.13503      0.05147      0.01150      0.22384      0.05802      
44600   0.16154    0.00754    0.01139    0.01240      0.13497      0.05168      0.01134      0.22316      0.05828      
44700   0.16146    0.00753    0.01137    0.01234      0.13495      0.05144      0.01134      0.22267      0.05775      
44800   0.16140    0.00753    0.01136    0.01237      0.13490      0.05144      0.01128      0.22266      0.05820      
44900   0.16132    0.00750    0.01134    0.01237      0.13485      0.05146      0.01123      0.22238      0.05772      
45000   0.16126    0.00749    0.01133    0.01235      0.13482      0.05141      0.01127      0.22248      0.05823      
45100   0.16121    0.00747    0.01132    0.01231      0.13481      0.05145      0.01138      0.22127      0.05772      
45200   0.16116    0.00747    0.01131    0.01238      0.13476      0.05143      0.01134      0.22231      0.05760      
45300   0.16110    0.00746    0.01130    0.01239      0.13472      0.05149      0.01133      0.22068      0.05757      
45400   0.16105    0.00745    0.01129    0.01241      0.13469      0.05130      0.01129      0.22001      0.05742      
45500   0.16098    0.00744    0.01128    0.01221      0.13468      0.05142      0.01144      0.22019      0.05746      
45600   0.16092    0.00743    0.01126    0.01225      0.13464      0.05139      0.01128      0.22002      0.05733      
45700   0.16088    0.00742    0.01125    0.01232      0.13461      0.05141      0.01132      0.21992      0.05693      
45800   0.16082    0.00740    0.01124    0.01232      0.13459      0.05131      0.01124      0.22125      0.05748      
45900   0.16076    0.00739    0.01123    0.01236      0.13453      0.05138      0.01142      0.22126      0.05720      
46000   0.16073    0.00738    0.01122    0.01239      0.13451      0.05134      0.01141      0.22057      0.05710      
46100   0.16066    0.00736    0.01120    0.01235      0.13450      0.05126      0.01134      0.22023      0.05681      
46200   0.16060    0.00735    0.01119    0.01231      0.13447      0.05127      0.01136      0.21849      0.05655      
46300   0.16052    0.00733    0.01117    0.01226      0.13444      0.05124      0.01122      0.21836      0.05637      
46400   0.16047    0.00733    0.01116    0.01231      0.13438      0.05138      0.01134      0.21818      0.05667      
46500   0.16043    0.00732    0.01116    0.01236      0.13434      0.05130      0.01149      0.21855      0.05672      
46600   0.16037    0.00731    0.01115    0.01227      0.13431      0.05142      0.01145      0.21968      0.05702      
46700   0.16032    0.00729    0.01114    0.01233      0.13430      0.05123      0.01139      0.21862      0.05684      
46800   0.16025    0.00728    0.01113    0.01221      0.13428      0.05123      0.01126      0.21763      0.05635      
46900   0.16019    0.00727    0.01112    0.01234      0.13422      0.05121      0.01129      0.21894      0.05673      
47000   0.16015    0.00727    0.01111    0.01232      0.13419      0.05119      0.01122      0.21919      0.05696      
47100   0.16009    0.00724    0.01109    0.01229      0.13416      0.05141      0.01139      0.22102      0.05734      
47200   0.16004    0.00723    0.01108    0.01226      0.13416      0.05119      0.01125      0.22030      0.05739      
47300   0.15999    0.00722    0.01107    0.01230      0.13412      0.05121      0.01134      0.21873      0.05693      
47400   0.15994    0.00721    0.01106    0.01233      0.13409      0.05115      0.01102      0.21833      0.05667      
47500   0.15988    0.00719    0.01104    0.01229      0.13406      0.05124      0.01111      0.21912      0.05704      
47600   0.15985    0.00718    0.01104    0.01232      0.13405      0.05112      0.01107      0.21794      0.05690      
47700   0.15981    0.00718    0.01103    0.01225      0.13403      0.05119      0.01119      0.21736      0.05666      
47800   0.15975    0.00716    0.01102    0.01224      0.13401      0.05102      0.01104      0.21929      0.05747      
47900   0.15970    0.00716    0.01101    0.01229      0.13397      0.05109      0.01121      0.21969      0.05743      
48000   0.15962    0.00713    0.01100    0.01224      0.13393      0.05111      0.01124      0.22019      0.05765      
48100   0.15958    0.00713    0.01099    0.01232      0.13389      0.05115      0.01141      0.21984      0.05760      
48200   0.15953    0.00711    0.01098    0.01231      0.13385      0.05117      0.01129      0.21978      0.05732      
48300   0.15946    0.00710    0.01097    0.01234      0.13382      0.05102      0.01109      0.21891      0.05719      
48400   0.15942    0.00708    0.01096    0.01219      0.13383      0.05110      0.01103      0.21852      0.05707      
48500   0.15937    0.00708    0.01094    0.01221      0.13380      0.05109      0.01111      0.21945      0.05738      
48600   0.15934    0.00707    0.01094    0.01228      0.13376      0.05107      0.01119      0.21837      0.05730      
48700   0.15930    0.00706    0.01093    0.01222      0.13377      0.05096      0.01104      0.21950      0.05720      
48800   0.15923    0.00704    0.01092    0.01218      0.13374      0.05104      0.01117      0.21908      0.05739      
48900   0.15917    0.00703    0.01091    0.01230      0.13368      0.05097      0.01098      0.21910      0.05710      
49000   0.15912    0.00702    0.01090    0.01224      0.13366      0.05093      0.01103      0.21936      0.05711      
49100   0.15907    0.00702    0.01089    0.01226      0.13363      0.05085      0.01112      0.21807      0.05688      
49200   0.15903    0.00700    0.01088    0.01227      0.13361      0.05096      0.01119      0.21831      0.05705      
49300   0.15898    0.00699    0.01087    0.01216      0.13359      0.05089      0.01104      0.21863      0.05714      
49400   0.15894    0.00699    0.01086    0.01226      0.13355      0.05093      0.01122      0.21856      0.05693      
49500   0.15889    0.00698    0.01085    0.01227      0.13351      0.05093      0.01123      0.21952      0.05677      
49600   0.15883    0.00697    0.01085    0.01227      0.13347      0.05095      0.01120      0.22146      0.05727      
49700   0.15881    0.00696    0.01084    0.01222      0.13347      0.05092      0.01113      0.22034      0.05719      
49800   0.15876    0.00694    0.01083    0.01218      0.13346      0.05088      0.01127      0.22060      0.05686      
49900   0.15872    0.00693    0.01082    0.01224      0.13342      0.05091      0.01112      0.22078      0.05721      
50000   0.15865    0.00692    0.01082    0.01221      0.13339      0.05083      0.01111      0.21908      0.05651      
50100   0.15863    0.00692    0.01081    0.01227      0.13336      0.05082      0.01126      0.21990      0.05686      
50200   0.15857    0.00690    0.01080    0.01221      0.13334      0.05089      0.01114      0.21939      0.05697      
50300   0.15853    0.00689    0.01079    0.01220      0.13333      0.05075      0.01106      0.21887      0.05672      
50400   0.15849    0.00689    0.01078    0.01222      0.13329      0.05085      0.01114      0.21870      0.05638      
50500   0.15845    0.00687    0.01077    0.01219      0.13327      0.05095      0.01111      0.21841      0.05652      
50600   0.15840    0.00687    0.01077    0.01217      0.13324      0.05095      0.01127      0.21711      0.05635      
50700   0.15837    0.00686    0.01076    0.01219      0.13324      0.05070      0.01115      0.21757      0.05629      
50800   0.15831    0.00685    0.01075    0.01217      0.13320      0.05079      0.01112      0.21843      0.05662      
50900   0.15828    0.00685    0.01074    0.01222      0.13318      0.05068      0.01122      0.21931      0.05662      
51000   0.15824    0.00683    0.01073    0.01224      0.13315      0.05085      0.01127      0.21773      0.05628      
51100   0.15819    0.00682    0.01072    0.01218      0.13313      0.05090      0.01137      0.21776      0.05619      
51200   0.15814    0.00681    0.01071    0.01218      0.13310      0.05081      0.01118      0.21815      0.05639      
51300   0.15809    0.00680    0.01070    0.01221      0.13305      0.05095      0.01124      0.21981      0.05672      
51400   0.15804    0.00678    0.01069    0.01214      0.13305      0.05081      0.01114      0.21916      0.05659      
51500   0.15799    0.00678    0.01068    0.01220      0.13301      0.05080      0.01115      0.22031      0.05659      
51600   0.15795    0.00676    0.01067    0.01217      0.13301      0.05075      0.01112      0.21947      0.05652      
51700   0.15789    0.00675    0.01066    0.01217      0.13298      0.05077      0.01111      0.21985      0.05671      
51800   0.15785    0.00675    0.01065    0.01214      0.13294      0.05084      0.01102      0.21960      0.05691      
51900   0.15781    0.00673    0.01064    0.01222      0.13291      0.05083      0.01117      0.21947      0.05657      
52000   0.15777    0.00673    0.01064    0.01216      0.13289      0.05077      0.01114      0.21914      0.05685      
52100   0.15773    0.00673    0.01062    0.01221      0.13287      0.05074      0.01118      0.21846      0.05641      
52200   0.15770    0.00672    0.01062    0.01213      0.13285      0.05082      0.01105      0.21841      0.05677      
52300   0.15767    0.00671    0.01062    0.01221      0.13282      0.05078      0.01105      0.21927      0.05675      
52400   0.15764    0.00671    0.01062    0.01218      0.13281      0.05076      0.01106      0.21795      0.05655      
52500   0.15759    0.00669    0.01061    0.01214      0.13278      0.05078      0.01109      0.21967      0.05679      
52600   0.15754    0.00669    0.01060    0.01218      0.13274      0.05072      0.01112      0.21908      0.05654      
52700   0.15750    0.00668    0.01059    0.01214      0.13273      0.05071      0.01131      0.21874      0.05644      
52800   0.15746    0.00667    0.01059    0.01210      0.13272      0.05064      0.01101      0.21891      0.05655      
52900   0.15742    0.00665    0.01057    0.01208      0.13271      0.05069      0.01113      0.21854      0.05633      
53000   0.15738    0.00664    0.01057    0.01214      0.13269      0.05056      0.01113      0.21905      0.05632      
53100   0.15733    0.00663    0.01056    0.01219      0.13265      0.05059      0.01111      0.21707      0.05619      
53200   0.15729    0.00662    0.01055    0.01211      0.13263      0.05061      0.01110      0.21709      0.05612      
53300   0.15725    0.00661    0.01054    0.01216      0.13260      0.05068      0.01115      0.21739      0.05629      
53400   0.15722    0.00660    0.01053    0.01210      0.13261      0.05064      0.01112      0.21763      0.05644      
53500   0.15718    0.00660    0.01053    0.01211      0.13257      0.05062      0.01113      0.21679      0.05631      
53600   0.15714    0.00659    0.01052    0.01208      0.13255      0.05071      0.01104      0.21755      0.05682      
53700   0.15710    0.00658    0.01051    0.01209      0.13253      0.05062      0.01104      0.21765      0.05662      
53800   0.15705    0.00657    0.01050    0.01210      0.13251      0.05061      0.01114      0.21768      0.05694      
53900   0.15702    0.00656    0.01049    0.01204      0.13249      0.05064      0.01093      0.21680      0.05656      
54000   0.15697    0.00655    0.01048    0.01209      0.13246      0.05061      0.01102      0.21813      0.05700      
54100   0.15694    0.00654    0.01047    0.01209      0.13243      0.05070      0.01107      0.21784      0.05691      
54200   0.15690    0.00653    0.01047    0.01213      0.13242      0.05056      0.01102      0.21754      0.05659      
54300   0.15688    0.00654    0.01046    0.01211      0.13240      0.05057      0.01100      0.21683      0.05658      
54400   0.15683    0.00652    0.01045    0.01211      0.13237      0.05065      0.01103      0.21715      0.05656      
54500   0.15679    0.00651    0.01044    0.01212      0.13236      0.05059      0.01109      0.21743      0.05639      
54600   0.15676    0.00650    0.01044    0.01211      0.13234      0.05061      0.01105      0.21908      0.05718      
54700   0.15671    0.00649    0.01043    0.01212      0.13232      0.05055      0.01091      0.21800      0.05670      
54800   0.15668    0.00649    0.01042    0.01207      0.13229      0.05059      0.01102      0.21660      0.05612      
54900   0.15664    0.00648    0.01042    0.01205      0.13228      0.05054      0.01095      0.21710      0.05656      
55000   0.15660    0.00647    0.01041    0.01204      0.13227      0.05052      0.01093      0.21653      0.05630      
55100   0.15657    0.00647    0.01041    0.01205      0.13223      0.05058      0.01104      0.21640      0.05641      
55200   0.15654    0.00645    0.01040    0.01207      0.13222      0.05056      0.01093      0.21664      0.05630      
55300   0.15651    0.00645    0.01039    0.01204      0.13220      0.05064      0.01092      0.21605      0.05620      
55400   0.15647    0.00644    0.01038    0.01208      0.13217      0.05055      0.01097      0.21625      0.05628      
55500   0.15644    0.00643    0.01038    0.01202      0.13217      0.05052      0.01093      0.21572      0.05612      
55600   0.15640    0.00642    0.01037    0.01203      0.13215      0.05054      0.01096      0.21588      0.05623      
55700   0.15637    0.00642    0.01036    0.01203      0.13214      0.05045      0.01098      0.21610      0.05619      
55800   0.15634    0.00641    0.01036    0.01207      0.13210      0.05051      0.01104      0.21646      0.05656      
55900   0.15630    0.00641    0.01035    0.01205      0.13208      0.05046      0.01092      0.21622      0.05648      
56000   0.15626    0.00640    0.01034    0.01208      0.13206      0.05046      0.01092      0.21511      0.05618      
56100   0.15624    0.00640    0.01034    0.01203      0.13204      0.05048      0.01088      0.21398      0.05606      
56200   0.15620    0.00639    0.01033    0.01208      0.13202      0.05041      0.01091      0.21498      0.05616      
56300   0.15617    0.00638    0.01033    0.01203      0.13200      0.05050      0.01088      0.21388      0.05587      
56400   0.15613    0.00638    0.01032    0.01206      0.13198      0.05039      0.01096      0.21429      0.05580      
56500   0.15610    0.00637    0.01032    0.01204      0.13195      0.05041      0.01098      0.21532      0.05607      
56600   0.15606    0.00637    0.01032    0.01201      0.13194      0.05037      0.01084      0.21488      0.05610      
56700   0.15603    0.00636    0.01031    0.01205      0.13191      0.05041      0.01084      0.21553      0.05608      
56800   0.15599    0.00635    0.01030    0.01197      0.13191      0.05043      0.01083      0.21601      0.05641      
56900   0.15597    0.00635    0.01030    0.01201      0.13188      0.05045      0.01082      0.21662      0.05631      
57000   0.15593    0.00634    0.01029    0.01200      0.13187      0.05038      0.01090      0.21631      0.05619      
57100   0.15590    0.00633    0.01028    0.01202      0.13186      0.05031      0.01082      0.21627      0.05614      
57200   0.15587    0.00633    0.01028    0.01201      0.13183      0.05033      0.01090      0.21635      0.05606      
57300   0.15585    0.00632    0.01028    0.01198      0.13181      0.05040      0.01097      0.21614      0.05631      
57400   0.15581    0.00632    0.01027    0.01200      0.13178      0.05043      0.01088      0.21605      0.05628      
57500   0.15577    0.00631    0.01026    0.01203      0.13175      0.05038      0.01092      0.21563      0.05623      
57600   0.15575    0.00630    0.01026    0.01203      0.13175      0.05031      0.01090      0.21545      0.05645      
57700   0.15572    0.00629    0.01025    0.01205      0.13174      0.05029      0.01096      0.21607      0.05649      
57800   0.15569    0.00629    0.01024    0.01205      0.13171      0.05034      0.01095      0.21583      0.05638      
57900   0.15565    0.00628    0.01024    0.01204      0.13169      0.05033      0.01088      0.21594      0.05634      
58000   0.15562    0.00627    0.01023    0.01202      0.13167      0.05032      0.01087      0.21569      0.05650      
58100   0.15558    0.00627    0.01023    0.01200      0.13164      0.05033      0.01079      0.21650      0.05678      
58200   0.15555    0.00626    0.01022    0.01209      0.13161      0.05032      0.01087      0.21555      0.05625      
58300   0.15552    0.00626    0.01022    0.01206      0.13160      0.05034      0.01086      0.21524      0.05640      
58400   0.15550    0.00625    0.01021    0.01206      0.13159      0.05034      0.01084      0.21556      0.05660      
[...]
219900  0.14653    0.00473    0.00894    0.01178      0.12566      0.04836      0.01080      0.22867      0.06298      
220000  0.14652    0.00473    0.00894    0.01177      0.12566      0.04836      0.01081      0.22858      0.06297      
220100  0.14652    0.00473    0.00894    0.01178      0.12565      0.04836      0.01082      0.22862      0.06299      
220200  0.14652    0.00473    0.00894    0.01178      0.12565      0.04837      0.01081      0.22849      0.06294      
220300  0.14652    0.00473    0.00894    0.01178      0.12565      0.04837      0.01081      0.22847      0.06296      
220400  0.14652    0.00473    0.00894    0.01177      0.12565      0.04837      0.01081      0.22859      0.06300      
220500  0.14652    0.00473    0.00894    0.01177      0.12565      0.04836      0.01082      0.22871      0.06302      
220600  0.14652    0.00473    0.00894    0.01178      0.12565      0.04837      0.01083      0.22878      0.06304      
220700  0.14652    0.00473    0.00894    0.01178      0.12565      0.04836      0.01082      0.22865      0.06301      
220800  0.14652    0.00473    0.00894    0.01178      0.12565      0.04836      0.01083      0.22863      0.06301      
220900  0.14651    0.00473    0.00894    0.01178      0.12565      0.04837      0.01081      0.22856      0.06301      
221000  0.14651    0.00473    0.00894    0.01178      0.12565      0.04837      0.01082      0.22863      0.06303      
221100  0.14651    0.00473    0.00894    0.01178      0.12564      0.04837      0.01082      0.22861      0.06300      
221200  0.14651    0.00473    0.00894    0.01178      0.12564      0.04837      0.01080      0.22862      0.06301      
221300  0.14651    0.00473    0.00894    0.01178      0.12564      0.04837      0.01082      0.22875      0.06305      
221400  0.14651    0.00473    0.00894    0.01178      0.12564      0.04837      0.01081      0.22868      0.06303      
221500  0.14651    0.00473    0.00894    0.01178      0.12564      0.04836      0.01082      0.22880      0.06304      
221600  0.14651    0.00473    0.00894    0.01178      0.12564      0.04836      0.01083      0.22885      0.06305      
221700  0.14651    0.00473    0.00894    0.01178      0.12564      0.04836      0.01083      0.22886      0.06307      
221800  0.14650    0.00473    0.00894    0.01178      0.12564      0.04835      0.01083      0.22871      0.06303      
221900  0.14650    0.00473    0.00894    0.01178      0.12564      0.04835      0.01082      0.22877      0.06303      
222000  0.14650    0.00473    0.00894    0.01178      0.12564      0.04836      0.01082      0.22868      0.06302      
222100  0.14650    0.00473    0.00894    0.01178      0.12564      0.04836      0.01083      0.22867      0.06302      
222200  0.14650    0.00473    0.00894    0.01177      0.12564      0.04836      0.01083      0.22877      0.06303      
222300  0.14650    0.00473    0.00894    0.01178      0.12564      0.04836      0.01084      0.22873      0.06302      
222400  0.14650    0.00473    0.00894    0.01177      0.12564      0.04836      0.01081      0.22855      0.06298      
222500  0.14650    0.00473    0.00894    0.01177      0.12563      0.04836      0.01082      0.22865      0.06301      
222600  0.14650    0.00473    0.00894    0.01177      0.12563      0.04836      0.01082      0.22862      0.06299      
222700  0.14650    0.00473    0.00894    0.01177      0.12563      0.04837      0.01082      0.22869      0.06301      
222800  0.14649    0.00473    0.00894    0.01177      0.12563      0.04837      0.01082      0.22878      0.06302      
222900  0.14649    0.00473    0.00894    0.01177      0.12563      0.04837      0.01082      0.22868      0.06299      
223000  0.14649    0.00473    0.00894    0.01177      0.12563      0.04836      0.01081      0.22865      0.06299      
223100  0.14649    0.00473    0.00894    0.01177      0.12563      0.04836      0.01081      0.22861      0.06297      
223200  0.14649    0.00473    0.00894    0.01177      0.12563      0.04837      0.01082      0.22866      0.06299      
223300  0.14649    0.00473    0.00894    0.01178      0.12563      0.04837      0.01082      0.22865      0.06301      
223400  0.14649    0.00473    0.00894    0.01178      0.12563      0.04836      0.01082      0.22864      0.06301      
223500  0.14649    0.00473    0.00894    0.01177      0.12563      0.04837      0.01081      0.22861      0.06299      
223600  0.14649    0.00473    0.00894    0.01177      0.12563      0.04837      0.01082      0.22875      0.06301      
223700  0.14649    0.00473    0.00894    0.01177      0.12562      0.04837      0.01082      0.22872      0.06300      
223800  0.14649    0.00473    0.00894    0.01178      0.12562      0.04836      0.01082      0.22875      0.06304      
223900  0.14648    0.00473    0.00894    0.01177      0.12562      0.04837      0.01083      0.22866      0.06301      
224000  0.14648    0.00473    0.00894    0.01177      0.12562      0.04837      0.01082      0.22856      0.06298      
224100  0.14648    0.00473    0.00894    0.01178      0.12562      0.04837      0.01082      0.22861      0.06298      
224200  0.14648    0.00473    0.00894    0.01177      0.12562      0.04838      0.01082      0.22851      0.06297      
224300  0.14648    0.00473    0.00894    0.01178      0.12562      0.04838      0.01082      0.22867      0.06299      
224400  0.14648    0.00473    0.00894    0.01177      0.12562      0.04837      0.01082      0.22863      0.06299      
224500  0.14648    0.00473    0.00894    0.01177      0.12562      0.04837      0.01083      0.22868      0.06302      
224600  0.14648    0.00473    0.00894    0.01177      0.12562      0.04838      0.01082      0.22870      0.06301      
224700  0.14648    0.00473    0.00894    0.01177      0.12562      0.04837      0.01083      0.22874      0.06301      
224800  0.14648    0.00473    0.00894    0.01177      0.12562      0.04837      0.01083      0.22889      0.06305      
224900  0.14647    0.00473    0.00894    0.01178      0.12561      0.04837      0.01083      0.22895      0.06308      
225000  0.14647    0.00473    0.00894    0.01178      0.12561      0.04837      0.01083      0.22888      0.06304      
225100  0.14647    0.00473    0.00894    0.01177      0.12561      0.04837      0.01082      0.22882      0.06303      
225200  0.14647    0.00473    0.00894    0.01177      0.12561      0.04837      0.01082      0.22885      0.06303      
225300  0.14647    0.00473    0.00894    0.01178      0.12561      0.04837      0.01083      0.22889      0.06303      
225400  0.14647    0.00473    0.00894    0.01178      0.12561      0.04836      0.01084      0.22891      0.06304      
225500  0.14647    0.00473    0.00894    0.01177      0.12561      0.04837      0.01083      0.22895      0.06304      
225600  0.14647    0.00473    0.00894    0.01177      0.12561      0.04836      0.01082      0.22889      0.06303      
225700  0.14647    0.00473    0.00894    0.01178      0.12561      0.04836      0.01083      0.22902      0.06306      
225800  0.14646    0.00473    0.00894    0.01178      0.12561      0.04837      0.01084      0.22891      0.06303      
225900  0.14646    0.00473    0.00894    0.01178      0.12560      0.04837      0.01084      0.22889      0.06304      
226000  0.14646    0.00473    0.00894    0.01178      0.12560      0.04836      0.01084      0.22893      0.06303      
226100  0.14646    0.00473    0.00894    0.01178      0.12560      0.04837      0.01084      0.22898      0.06305      
226200  0.14646    0.00473    0.00894    0.01177      0.12560      0.04837      0.01083      0.22897      0.06304      
226300  0.14646    0.00473    0.00894    0.01178      0.12560      0.04837      0.01084      0.22896      0.06305      
226400  0.14646    0.00473    0.00894    0.01177      0.12560      0.04837      0.01083      0.22899      0.06305      
226500  0.14646    0.00473    0.00894    0.01178      0.12560      0.04837      0.01083      0.22895      0.06306      
226600  0.14646    0.00473    0.00894    0.01178      0.12560      0.04838      0.01083      0.22897      0.06304      
226700  0.14646    0.00473    0.00894    0.01178      0.12560      0.04838      0.01084      0.22895      0.06304      
226800  0.14646    0.00473    0.00894    0.01178      0.12560      0.04837      0.01082      0.22893      0.06305      
226900  0.14646    0.00473    0.00894    0.01177      0.12560      0.04837      0.01084      0.22902      0.06308      
227000  0.14646    0.00473    0.00894    0.01178      0.12560      0.04837      0.01084      0.22905      0.06310      
227100  0.14646    0.00473    0.00894    0.01178      0.12560      0.04837      0.01084      0.22910      0.06310      
227200  0.14645    0.00473    0.00894    0.01178      0.12560      0.04837      0.01083      0.22915      0.06311      
227300  0.14645    0.00473    0.00894    0.01178      0.12560      0.04837      0.01085      0.22928      0.06314      
227400  0.14645    0.00473    0.00894    0.01178      0.12559      0.04837      0.01085      0.22930      0.06315      
227500  0.14645    0.00473    0.00894    0.01178      0.12559      0.04838      0.01084      0.22926      0.06311      
227600  0.14645    0.00473    0.00894    0.01178      0.12559      0.04837      0.01083      0.22922      0.06312      
227700  0.14645    0.00473    0.00894    0.01178      0.12559      0.04837      0.01083      0.22928      0.06313      
227800  0.14645    0.00473    0.00894    0.01178      0.12559      0.04837      0.01084      0.22916      0.06311      
227900  0.14645    0.00473    0.00894    0.01178      0.12559      0.04836      0.01084      0.22925      0.06312      
228000  0.14645    0.00473    0.00894    0.01178      0.12559      0.04836      0.01083      0.22924      0.06312      
228100  0.14645    0.00473    0.00894    0.01178      0.12559      0.04836      0.01085      0.22921      0.06310      
228200  0.14645    0.00473    0.00894    0.01177      0.12559      0.04836      0.01084      0.22925      0.06313      
228300  0.14644    0.00473    0.00894    0.01178      0.12559      0.04837      0.01083      0.22937      0.06316      
228400  0.14644    0.00473    0.00894    0.01177      0.12559      0.04836      0.01083      0.22941      0.06316      
228500  0.14644    0.00473    0.00894    0.01177      0.12559      0.04836      0.01084      0.22944      0.06317      
228600  0.14644    0.00473    0.00894    0.01178      0.12559      0.04836      0.01085      0.22948      0.06319      
228700  0.14644    0.00473    0.00894    0.01177      0.12559      0.04835      0.01083      0.22942      0.06316      
228800  0.14644    0.00473    0.00894    0.01177      0.12559      0.04836      0.01082      0.22954      0.06319      
228900  0.14644    0.00473    0.00894    0.01177      0.12559      0.04836      0.01083      0.22946      0.06320      
229000  0.14644    0.00473    0.00894    0.01178      0.12559      0.04836      0.01083      0.22956      0.06322      
229100  0.14644    0.00473    0.00894    0.01178      0.12558      0.04836      0.01085      0.22954      0.06322      
229200  0.14643    0.00472    0.00894    0.01178      0.12558      0.04836      0.01085      0.22963      0.06324      
229300  0.14643    0.00472    0.00894    0.01178      0.12558      0.04836      0.01086      0.22967      0.06324      
229400  0.14643    0.00472    0.00894    0.01177      0.12558      0.04836      0.01085      0.22970      0.06326      
229500  0.14643    0.00472    0.00894    0.01177      0.12558      0.04835      0.01085      0.22968      0.06327      
229600  0.14643    0.00472    0.00894    0.01178      0.12558      0.04836      0.01085      0.22979      0.06330      
229700  0.14643    0.00472    0.00894    0.01177      0.12558      0.04836      0.01085      0.22977      0.06328      
229800  0.14643    0.00472    0.00894    0.01177      0.12558      0.04836      0.01084      0.22971      0.06325      
229900  0.14643    0.00472    0.00894    0.01177      0.12558      0.04835      0.01086      0.22991      0.06331      
230000  0.14643    0.00472    0.00894    0.01177      0.12558      0.04836      0.01085      0.22988      0.06331      
230100  0.14643    0.00472    0.00893    0.01177      0.12558      0.04837      0.01085      0.22977      0.06329      
230200  0.14642    0.00472    0.00893    0.01177      0.12558      0.04836      0.01084      0.22967      0.06327      
230300  0.14642    0.00472    0.00893    0.01177      0.12557      0.04836      0.01085      0.22964      0.06325      
230400  0.14642    0.00472    0.00893    0.01177      0.12557      0.04836      0.01083      0.22946      0.06323      
230500  0.14642    0.00472    0.00893    0.01177      0.12557      0.04836      0.01084      0.22950      0.06322      
230600  0.14642    0.00472    0.00893    0.01177      0.12557      0.04836      0.01085      0.22964      0.06325      
230700  0.14642    0.00472    0.00893    0.01177      0.12557      0.04836      0.01085      0.22965      0.06324      
230800  0.14642    0.00472    0.00893    0.01177      0.12557      0.04835      0.01084      0.22972      0.06326      
230900  0.14642    0.00472    0.00893    0.01177      0.12557      0.04835      0.01085      0.22967      0.06328      
231000  0.14642    0.00472    0.00893    0.01177      0.12557      0.04836      0.01085      0.22966      0.06326      
231100  0.14642    0.00472    0.00893    0.01177      0.12557      0.04836      0.01085      0.22967      0.06328      
231200  0.14642    0.00472    0.00893    0.01178      0.12557      0.04836      0.01086      0.22967      0.06326      
231300  0.14641    0.00472    0.00893    0.01177      0.12557      0.04835      0.01085      0.22966      0.06327      
231400  0.14641    0.00472    0.00893    0.01178      0.12557      0.04835      0.01085      0.22966      0.06326      
231500  0.14641    0.00472    0.00893    0.01177      0.12557      0.04835      0.01086      0.22963      0.06325      
231600  0.14641    0.00472    0.00893    0.01177      0.12557      0.04836      0.01085      0.22980      0.06329      
231700  0.14641    0.00472    0.00893    0.01177      0.12556      0.04836      0.01086      0.22979      0.06330      
231800  0.14641    0.00472    0.00893    0.01178      0.12556      0.04835      0.01085      0.22970      0.06328      
231900  0.14641    0.00472    0.00893    0.01178      0.12556      0.04835      0.01085      0.22976      0.06329      
232000  0.14641    0.00472    0.00893    0.01178      0.12556      0.04835      0.01086      0.22968      0.06327      
232100  0.14641    0.00472    0.00893    0.01177      0.12556      0.04836      0.01085      0.22965      0.06326      
232200  0.14641    0.00472    0.00893    0.01177      0.12556      0.04835      0.01085      0.22977      0.06328      
232300  0.14641    0.00472    0.00893    0.01178      0.12556      0.04835      0.01087      0.22979      0.06330      
232400  0.14640    0.00472    0.00893    0.01177      0.12556      0.04834      0.01085      0.22963      0.06329      
232500  0.14640    0.00472    0.00893    0.01177      0.12556      0.04834      0.01086      0.22980      0.06332      
232600  0.14640    0.00472    0.00893    0.01177      0.12556      0.04834      0.01086      0.22958      0.06327      
232700  0.14640    0.00472    0.00893    0.01177      0.12556      0.04834      0.01085      0.22968      0.06327      
232800  0.14640    0.00472    0.00893    0.01177      0.12556      0.04834      0.01086      0.22977      0.06330      
232900  0.14640    0.00472    0.00893    0.01177      0.12556      0.04834      0.01086      0.22991      0.06334      
233000  0.14640    0.00472    0.00893    0.01177      0.12556      0.04834      0.01086      0.22989      0.06334      
233100  0.14640    0.00472    0.00893    0.01177      0.12556      0.04835      0.01085      0.22981      0.06333      
233200  0.14640    0.00472    0.00893    0.01177      0.12556      0.04834      0.01086      0.22972      0.06331      
233300  0.14640    0.00472    0.00893    0.01177      0.12556      0.04834      0.01084      0.22981      0.06332      
233400  0.14640    0.00472    0.00893    0.01177      0.12555      0.04834      0.01085      0.22983      0.06332      
233500  0.14640    0.00472    0.00893    0.01177      0.12555      0.04834      0.01085      0.22988      0.06333      
233600  0.14639    0.00472    0.00893    0.01178      0.12555      0.04834      0.01085      0.22995      0.06334      
233700  0.14639    0.00472    0.00893    0.01177      0.12555      0.04835      0.01085      0.22995      0.06337      
233800  0.14639    0.00472    0.00893    0.01177      0.12555      0.04835      0.01085      0.22986      0.06335      
233900  0.14639    0.00472    0.00893    0.01178      0.12555      0.04834      0.01086      0.22999      0.06337      
234000  0.14639    0.00472    0.00893    0.01178      0.12555      0.04835      0.01084      0.22982      0.06333      
234100  0.14639    0.00472    0.00893    0.01178      0.12555      0.04834      0.01087      0.23001      0.06336      
234200  0.14639    0.00472    0.00893    0.01178      0.12555      0.04834      0.01087      0.23001      0.06338      
234300  0.14639    0.00472    0.00893    0.01178      0.12555      0.04834      0.01087      0.23004      0.06339      
234400  0.14639    0.00472    0.00893    0.01177      0.12555      0.04834      0.01085      0.23001      0.06338      
234500  0.14639    0.00472    0.00893    0.01177      0.12554      0.04835      0.01087      0.23023      0.06344      
234600  0.14639    0.00472    0.00893    0.01177      0.12554      0.04835      0.01086      0.23019      0.06344      
234700  0.14638    0.00472    0.00893    0.01178      0.12554      0.04834      0.01087      0.23014      0.06341      
234800  0.14638    0.00472    0.00893    0.01178      0.12554      0.04835      0.01087      0.23021      0.06344      
234900  0.14638    0.00472    0.00893    0.01178      0.12554      0.04834      0.01088      0.23032      0.06345      
235000  0.14638    0.00472    0.00893    0.01178      0.12554      0.04835      0.01088      0.23032      0.06346      
235100  0.14638    0.00472    0.00893    0.01178      0.12554      0.04834      0.01087      0.23040      0.06349      
235200  0.14638    0.00472    0.00893    0.01178      0.12554      0.04834      0.01087      0.23035      0.06348      
235300  0.14638    0.00472    0.00893    0.01178      0.12554      0.04834      0.01087      0.23036      0.06348      
235400  0.14638    0.00472    0.00893    0.01178      0.12554      0.04834      0.01088      0.23036      0.06347      
235500  0.14638    0.00472    0.00893    0.01178      0.12554      0.04834      0.01087      0.23025      0.06346      
235600  0.14638    0.00472    0.00893    0.01178      0.12554      0.04833      0.01088      0.23023      0.06346      
235700  0.14638    0.00472    0.00893    0.01178      0.12554      0.04833      0.01088      0.23025      0.06346      
235800  0.14638    0.00472    0.00893    0.01178      0.12553      0.04834      0.01088      0.23019      0.06346      
235900  0.14637    0.00472    0.00893    0.01178      0.12553      0.04834      0.01087      0.23021      0.06345      
236000  0.14637    0.00472    0.00893    0.01178      0.12553      0.04834      0.01088      0.23020      0.06343      
236100  0.14637    0.00472    0.00893    0.01178      0.12553      0.04834      0.01086      0.23012      0.06345      
236200  0.14637    0.00472    0.00893    0.01178      0.12553      0.04834      0.01087      0.23015      0.06346      
236300  0.14637    0.00472    0.00893    0.01178      0.12553      0.04834      0.01088      0.23019      0.06346      
236400  0.14637    0.00472    0.00893    0.01178      0.12553      0.04834      0.01086      0.23018      0.06348      
