 -3.3609711e-03   3.0514141e-04
  8.6352974e-01   1.6115933e-04
  6.4069724e-01   2.4764042e-05
  3.2867575e-01   3.3786400e-05
  5.1864594e-01   6.6081950e-05
 -5.3292888e-01   2.2953211e-06
 -9.6866465e-01   1.9745868e-05
 -2.2874002e-01   3.7204172e-05
 -1.1237920e-03   1.0137170e-04
 -1.7894895e-01   9.0481926e-06
  1.1055375e-01   1.3576279e-04
 -5.8417253e-02   4.0852201e-06
  2.5262511e-03   1.5450889e-05
  5.2764219e-01   4.4436110e-05
  2.2229868e-01   5.6031204e-06
  4.2587779e-02   1.3936454e-05
 -5.3295547e-01   1.1617413e-04
 -4.4583854e-01   9.2037990e-05
  4.3315899e-02   1.0012512e-04
  3.2481864e-01   2.0240541e-06
 -1.0476339e-02   6.1134815e-05
 -2.0883211e-01   1.1373839e-04
 -3.3476084e-01   8.4605490e-05
 -5.6727475e-01   7.9099053e-05
  3.0950004e-01   1.0356409e-05
  3.7728552e-02   1.4921657e-05
 -2.0216754e-02   2.5642701e-04
  2.2227986e-01   1.1114571e-03
 -5.6501315e-04   8.4004459e-05
  1.8769577e-04   9.2166250e-05
  2.2799874e-02   1.6503504e-05
 -2.3614949e-01   8.6085347e-05
  1.2379394e+00   8.0106707e-05
 -5.3640580e-01   1.4551479e-04
  9.6999057e-02   1.2859495e-03
  4.4471309e-01   4.6150407e-04
 -1.6550240e-01   7.3109241e-04
  3.6620143e-01   1.4342650e-04
 -3.9775901e-02   2.8221603e-03
  8.8266395e-02   8.4336280e-06
  1.8235182e-03   2.2299957e-04
  4.7274476e-01   6.9277629e-04
  1.5556302e-03   1.1146226e-04
 -8.0541254e-04   2.4033600e-04
  5.9942519e-03   2.2723695e-04
 -3.7940260e-04   2.1718808e-05
  2.0148872e-01   1.6260441e-05
 -3.9047620e-04   3.3308559e-05
 -3.2622863e-03   1.1291898e-04
 -1.2627384e-02   4.5285113e-05
 -6.4289692e-05   1.3135131e-04
  9.9658287e-01   3.6322133e-05
  1.6807877e-03   1.3899687e-04
  5.4423921e-03   5.8240036e-04
  5.5267721e-02   9.8873090e-05
  3.3157399e-01   2.3265644e-05
  2.5885730e-04   7.7931203e-05
  6.1949879e-01   4.6972873e-05
  1.8438604e-02   4.2681360e-05
  6.2491721e-01   6.9161911e-06
 -4.5472732e-01   5.0519307e-06
 -1.3637683e-01   1.8055411e-04
 -9.5322788e-02   7.7739795e-05
  1.5891486e-01   3.1033011e-05
  1.0212324e-01   2.0029533e-04
 -3.1165481e-01   1.6648453e-04
 -1.7418596e-01   6.0054150e-05
 -4.8074588e-01   2.3142840e-05
 -2.3489787e-01   5.1193390e-05
 -5.3328592e-01   1.4223774e-04
  1.4894810e-01   4.8925849e-05
 -1.6641495e-01   1.7979831e-04
  6.2837340e-02   9.2716189e-05
  3.9925739e-02   5.5328692e-06
 -2.8630865e-01   6.8453892e-06
  8.9640662e-02   2.5164272e-05
 -1.4565760e-01   6.5717666e-04
 -2.3653652e-01   2.9003288e-04
  5.3190041e-02   1.1324518e-05
 -8.2452714e-01   2.1161174e-04
  9.3717715e-03   1.4376891e-04
  5.4276550e-01   5.2825379e-04
 -2.9687984e-03   7.9482579e-06
 -1.5896782e-02   8.9264737e-05
 -4.3516335e-01   9.2194830e-05
 -2.5476179e-01   2.4818859e-05
 -9.8357707e-02   7.6469796e-06
  9.0780750e-02   6.3565305e-05
  8.8918373e-02   1.4206584e-04
  2.4499017e-01   6.5331319e-06
  1.1302023e-01   3.2390330e-05
  8.8926747e-02   5.9344649e-05
 -6.4420573e-02   1.1652966e-04
  2.9078013e-01   1.0809630e-04
 -1.7418019e-01   2.9845757e-04
  2.0845111e-02   7.6979131e-06
  1.7975499e-01   4.4062566e-05
 -5.4418313e-04   1.7010813e-04
  2.3657164e-01   3.0018913e-04
  2.5888395e-01   1.6182808e-04
  2.4430025e-01   1.4244524e-05
  3.2945916e-01   2.6508412e-04
 -2.7568159e-01   5.5131113e-05
  1.1981167e-01   1.5531237e-04
 -5.2944832e-02   2.3943570e-04
  8.3966851e-03   4.8158974e-05
  6.7283539e-03   3.2240365e-05
  3.1014388e-05   2.8824797e-05
  6.6998756e-01   1.4159681e-04
  6.5697417e-02   1.2675858e-04
  5.0063765e-01   1.6141414e-05
 -1.3606626e-01   3.0343999e-06
  5.1916981e-01   4.3384458e-05
  2.9343817e-01   2.0525124e-06
 -2.4543378e-01   1.0861077e-05
 -3.4552380e-01   3.5115110e-04
 -1.1890752e-01   9.6117932e-05
  2.0304881e-01   9.7814111e-05
  1.9224582e-02   3.4014520e-05
  1.9429417e-03   1.0814073e-06
 -4.7572333e-02   5.4935424e-04
  3.0184236e-01   2.5792193e-05
 -1.9357733e-01   4.9978109e-05
 -2.0921226e-03   1.3618990e-04
 -4.0141489e-02   2.2259663e-05
  1.4509280e-01   2.2952352e-05
  6.6661374e-03   2.2533631e-04
  3.2909330e-02   2.7401175e-05
  5.4482608e-03   4.0596475e-05
  3.6927655e-02   5.8265436e-05
  3.0490718e-04   6.7277200e-05
 -1.2207834e-01   3.5344168e-05
  2.2648066e-01   3.2559337e-06
  2.6099436e-02   8.5008571e-05
 -2.3428183e-03   1.0473087e-05
 -6.3094415e-02   7.9105835e-04
 -2.1496483e-03   2.6531887e-04
  9.5461309e-04   1.2849564e-04
  1.5522206e-03   6.9567002e-05
 -1.6657555e-03   3.7647816e-05
  1.7856903e-01   4.7287404e-06
  1.4794081e-01   2.8053980e-04
 -4.0257716e-04   1.7123996e-06
  6.5025699e-04   2.4496880e-04
  3.8471851e-01   2.3830245e-04
  2.1434789e-04   1.0455091e-04
  5.1683339e-04   2.7885012e-04
  1.1098575e-03   1.9300203e-05
 -3.1638718e-03   8.8495735e-06
  4.0766361e-04   7.5351054e-06
  9.6755542e-02   4.0969133e-04
  1.0444198e-03   1.1402330e-04
 -1.6331620e-03   8.0521498e-04
 -1.3039628e-03   2.6081255e-04
  2.4730821e-01   1.3813454e-04
 -1.5042550e-02   9.8734228e-05
 -6.0098927e-04   3.4499142e-05
  2.1533081e-03   2.7156595e-04
 -1.9633429e-02   6.9956659e-05
 -6.4666474e-01   1.0543867e-04
 -5.8214925e-02   1.5819348e-04
 -1.4780127e-04   3.4797101e-04
 -4.4867164e-03   1.2750435e-04
  3.3017020e-03   2.1224105e-04
 -1.8333484e+00   6.7817367e-05
 -1.4285721e+00   1.7191602e-05
 -5.2387055e-02   3.2024822e-05
  1.3881688e+00   2.5384317e-04
  3.5359834e-03   2.1966922e-04
 -1.3871852e-01   3.0377338e-05
 -1.4402689e-01   3.1965901e-04
 -1.5650578e-01   1.0582534e-05
  2.3284088e-01   7.8380494e-05
  4.5941019e-01   1.4685007e-05
 -4.1300824e-01   3.2804088e-05
 -2.8657269e-01   3.0815022e-04
 -1.1148353e-01   1.3174276e-05
  2.3785429e-01   1.8936941e-04
 -4.5230946e-01   4.2480585e-04
 -5.2684081e-01   2.4603982e-05
  1.4559798e-01   2.1779421e-04
  5.2635234e-02   2.7370210e-05
 -1.6384697e-01   2.8812911e-04
 -3.9889807e-01   1.3622391e-04
 -1.3037813e-01   4.5801859e-05
 -1.4434105e-01   2.2922928e-04
  9.2312582e-02   7.7337267e-05
 -6.9763716e-03   7.1708055e-05
 -2.8617723e-02   6.5011191e-05
  9.2166469e-02   9.4926909e-05
  5.1993417e-04   2.3527806e-04
 -1.3161497e-02   1.4418949e-04
 -3.3504929e-02   5.0343457e-05
 -5.6888718e-02   3.8221551e-05
 -5.1228974e-02   9.8613018e-06
 -9.8598758e-03   1.2551775e-04
  3.0320531e-01   8.3687719e-06
  5.0905269e-02   2.6196683e-05
 -2.0309571e-02   1.2535504e-04
  5.4871865e-02   6.2029816e-05
 -8.8603646e-03   9.7746357e-05
  1.0623059e-01   3.3072571e-05
 -1.7061065e-03   9.5442316e-05
 -6.2565990e-03   1.8006582e-06
 -1.8718418e-02   1.3671601e-05
 -2.4914413e-03   1.9320680e-04
  1.8676282e-04   5.8570648e-05
 -4.5759280e-04   1.2082524e-04
  6.4995177e-02   2.6084501e-05
  3.1310715e-02   3.6059857e-05
 -3.7327729e-02   5.4758086e-05
  3.8169532e-03   1.3684702e-06
  1.6730969e-03   7.6932774e-06
 -8.2563773e-02   3.2068030e-05
  7.9908263e-04   4.4683045e-05
 -9.2217308e-03   4.8135316e-05
 -3.6607310e-01   7.2191551e-04
 -5.6284167e-05   1.4877730e-04
 -1.6947307e-02   3.8955687e-04
  3.5769304e-03   1.3244725e-04
  7.9845971e-01   2.0057875e-04
 -2.0371163e+00   2.3855180e-05
 -4.8155684e-02   4.6418438e-04
 -1.9577621e-01   1.3195910e-03
 -6.4315587e-02   1.1983407e-03
 -7.5204754e-01   2.9574905e-04
 -4.7220841e-01   3.1805562e-04
 -1.2009505e-03   3.7248112e-05
 -6.5416247e-02   1.8311176e-04
  4.9302058e-04   4.0181927e-05
 -7.5827742e-01   4.6401963e-04
 -2.1170190e-01   2.6891979e-03
 -3.9992236e-02   4.7214505e-07
 -3.2574825e-02   6.8794063e-04
 -2.3820209e-03   5.5802942e-05
 -8.2065690e-01   9.0819856e-05
 -1.1732525e-01   5.6738022e-04
 -1.5636738e-02   2.4091046e-04
 -4.5772828e-03   4.1279673e-05
 -2.2879550e-03   5.8934562e-05
 -7.7683479e-01   7.0280035e-04
 -7.0240654e-02   7.8585217e-05
 -1.9000764e-03   1.0696212e-06
  2.4634662e-01   4.1095231e-04
  2.3395326e-02   5.2317057e-05
 -1.0862506e-01   3.3383624e-04
  1.2873755e-03   4.4618788e-05
 -1.1804236e-01   7.8738747e-05
 -7.5533591e-02   1.0167921e-04
 -1.0069687e-01   4.9574787e-06
  2.4756131e-04   9.2987386e-05
  5.4983705e-01   4.0853405e-04
 -2.7433345e-01   9.9061406e-05
  3.6089808e-01   5.9889033e-05
 -1.3305803e-01   4.1946874e-04
  8.1015294e-03   8.4539652e-06
  6.7977868e-03   3.6322774e-06
  3.2736641e-01   2.5865185e-04
  3.0148674e-05   2.5873134e-05
  5.4524980e-02   5.7594141e-04
  6.1715204e-02   1.2964832e-04
  2.3465039e-01   2.3363283e-04
  2.7166750e-02   2.4626688e-06
  7.6385746e-03   3.5476674e-05
 -8.4529877e-02   1.5679043e-05
 -8.5739419e-04   4.6419682e-05
  8.0347277e-02   3.8683760e-05
 -3.2145223e-01   4.8937152e-05
  1.0148272e-03   3.6992569e-05
  2.1448384e-04   1.6018256e-04
 -1.6864789e-01   2.6800424e-05
  1.8568299e+00   7.2352945e-05
  4.9853283e-01   9.9581099e-05
  7.6473486e-01   6.0200477e-05
  7.4761033e-02   7.3804536e-08
  1.0645502e-01   4.6975882e-05
 -2.9786208e+00   2.4842692e-04
  3.9787780e-02   1.2120981e-04
 -4.6989128e-02   2.6854124e-05
  9.5685176e-04   1.5320959e-04
 -6.8880051e-02   7.8969002e-05
 -6.3724659e-02   1.1666601e-05
  4.3222733e-02   8.8430003e-05
  2.4727568e-01   1.4109958e-04
  4.6274567e-01   2.5716919e-05
  2.0002060e-02   1.6802254e-04
  9.6844040e-02   3.5411166e-04
  1.4034684e-01   1.8482673e-04
  2.3667318e-01   2.9770885e-05
  2.5393710e-01   2.0187821e-05
 -6.0668974e-03   2.8725087e-06
 -6.1058782e-02   1.2058940e-04
 -3.8572926e-02   3.0766678e-05
  4.1201693e-01   1.3822049e-04
  5.2193463e-02   5.0506893e-05
  1.1021602e-01   2.3414019e-05
  3.0203593e-01   4.0130755e-05
 -3.9447933e-01   2.9396528e-04
  1.1079296e-01   1.3098959e-04
  5.5822647e-01   8.3000268e-06
  7.4951506e-01   1.7146420e-04
  7.0648873e-01   8.7388408e-08
  8.0137718e-01   1.3380006e-07
 -5.6135392e-01   2.9106597e-05
 -4.6586794e-01   5.9885457e-05
  2.4744630e-04   8.3575382e-05
 -1.0876062e-01   1.0551334e-05
  1.1755029e-02   1.3149604e-05
  2.4821319e-01   7.5887065e-06
 -7.9414195e-01   6.1096413e-05
 -2.4157573e-01   8.0237187e-06
 -8.5671954e-02   5.9567799e-05
 -1.8085388e-02   3.9901119e-05
 -6.2899545e-02   3.1852516e-04
 -1.1520591e-01   2.1806770e-04
 -4.4327921e-01   6.6151033e-06
 -7.0742094e-03   1.3646973e-05
 -4.4533205e-03   3.4729121e-05
  4.7698326e-02   5.0035687e-05
 -1.3447219e-01   3.2755765e-04
 -1.0577819e-01   9.5734569e-05
  4.6317253e-02   2.9085020e-06
  1.9522499e-01   7.2946914e-06
 -2.2309654e-05   1.7881432e-05
  3.3247638e-01   1.1086104e-04
  2.5000581e-01   2.3010922e-05
  2.1362415e-01   4.7254778e-04
 -5.3213292e-01   1.4537773e-05
  7.9939305e-04   9.9584067e-05
  4.1891068e-01   7.8691555e-05
 -2.3499614e-01   2.3163100e-05
  1.5633242e-01   3.3407880e-04
 -3.6347589e-01   2.7428207e-04
 -2.6110592e-01   7.7869763e-06
  5.9856194e-01   3.4387460e-05
 -1.1735830e-02   3.2309432e-05
  6.6457026e-02   4.3392123e-05
  6.2922033e-04   1.4177809e-04
 -1.2714040e-01   4.7421272e-05
  6.4997017e-01   3.9953217e-04
  9.9101156e-02   1.6895928e-04
  8.4267557e-02   1.6261160e-04
 -1.6264690e-01   3.1256495e-04
 -2.2463618e-01   3.3429744e-05
  1.2686592e-01   2.0191179e-05
  1.0938528e-01   1.2915943e-05
  9.8621219e-02   8.9848480e-05
  4.8005269e-03   4.0651787e-05
 -2.8393617e-01   9.8242999e-05
 -8.1053782e-01   5.3582473e-05
  1.3492067e-01   1.8259257e-04
  5.8212411e-01   1.3761990e-03
  3.9806562e-03   1.3305873e-04
 -7.1174167e-03   2.7613842e-04
  6.3554370e-03   6.9968402e-05
  4.8273738e-04   1.1585034e-04
 -7.3185921e-02   9.1772417e-05
  6.2831700e-02   1.0228645e-04
  2.5624216e-03   6.0759605e-05
 -6.7454731e-01   2.8492964e-04
 -2.0486465e-02   1.8991261e-04
  9.3814813e-02   2.6279921e-04
  1.9448234e-03   3.3270629e-04
  3.3491736e-03   6.3091022e-04
 -1.4455192e-03   5.6083632e-06
  5.7805061e-02   2.5445886e-04
  3.5422099e-01   2.6663355e-04
 -3.2349003e-03   4.3327844e-05
  3.8992956e-02   1.4547906e-03
 -8.9707024e-02   3.4286646e-04
  6.0508406e-01   2.2443794e-04
 -1.5789424e-01   8.9447185e-06
 -9.3761027e-02   1.3016228e-04
  2.1585631e-01   1.2235306e-04
 -1.2899444e-03   3.8737264e-05
  7.0327145e-01   4.6074561e-05
 -1.0264123e-01   1.5242388e-04
  5.1484914e-03   4.4949615e-04
 -2.7349371e-01   6.9904592e-05
 -8.8453740e-01   2.2656632e-05
 -3.2735014e-01   2.1069998e-05
 -6.8315345e-01   1.3582833e-06
 -2.6002768e-01   2.1388644e-06
 -1.3881302e-01   4.9633018e-06
  3.6209404e-01   6.3275322e-05
  1.7994939e-01   4.0723833e-05
  6.5016411e-02   1.0631315e-06
 -2.4975725e-02   2.0856487e-06
  3.2611832e-02   1.8958721e-06
  3.2053408e-01   5.9855493e-06
  4.2506692e-01   1.1438494e-04
  3.7159988e-01   6.1615087e-06
  1.2916306e-01   2.2037344e-07
  1.6002119e-01   7.7344785e-06
  5.5193841e-01   1.2347364e-04
 -5.4659978e-02   4.2159903e-05
  1.6390048e-01   8.6134814e-06
 -6.9996074e-02   2.0900501e-05
  1.6537683e-01   2.0038115e-05
  6.3339412e-01   9.8174889e-05
  3.3873605e-04   9.8627221e-05
  1.0673850e-01   1.0464570e-05
 -1.5605681e-02   7.6997376e-06
  1.6059792e-01   3.4104542e-05
  4.7544414e-01   3.1133752e-06
  1.8379707e-03   1.0993227e-04
  1.0362506e+00   4.0843798e-04
 -3.7717342e-02   4.1751623e-06
  4.0071654e-01   3.9580184e-05
  6.7278400e-02   5.7671714e-05
 -1.9642054e-01   1.0233179e-04
 -1.0125597e+00   2.4891441e-04
  2.2932674e-01   3.8963317e-05
  1.7784321e-01   1.8268982e-04
  1.0189530e-01   9.6861033e-05
  3.1366780e-02   6.7006542e-05
  4.5913634e-01   4.2892629e-04
 -2.4750535e-04   1.5100047e-04
  2.3706427e-01   1.2633129e-04
 -2.8890720e-01   1.9776339e-04
  2.0645790e-01   1.0544335e-04
 -1.8775825e-01   2.1904490e-04
 -5.0385281e-02   2.4089534e-04
 -1.2066845e-02   1.7361616e-04
  3.6040834e-01   4.2163610e-06
 -2.7671451e-02   2.6686583e-04
 -1.8862846e-04   2.5678953e-04
 -1.8293714e-03   4.6666326e-05
  6.9769582e-04   1.5474304e-04
  2.0505661e-01   6.6074215e-05
  2.2665691e-01   1.8979605e-05
 -5.8109141e-03   2.9553779e-05
  2.9165894e-04   1.5586204e-05
 -4.4197774e-01   9.4884257e-05
 -8.9311528e-01   2.0116751e-04
 -1.6485592e-02   3.1909623e-04
 -1.0542946e+00   6.1648912e-05
  1.3400546e-01   7.7609948e-06
  4.7042981e-01   6.5307900e-06
  9.6859288e-04   2.2945573e-05
 -2.6043698e-01   6.1566941e-05
  2.3838899e-01   7.3772266e-05
  3.3231601e-02   3.9450399e-05
  2.2911695e-01   2.4315446e-04
  4.3300111e-02   9.6371176e-04
 -4.6238326e-02   3.8207399e-05
  1.3119595e-01   2.4592064e-04
  4.0744990e-01   4.0781611e-05
  3.8716939e-01   6.6998036e-05
  1.1977299e-01   3.7120033e-05
 -2.0857282e-01   4.1894436e-05
 -2.1749657e-01   3.2315094e-07
  5.4105586e-01   7.0262256e-05
  5.7020712e-01   4.0581776e-04
  1.7914890e-01   4.9491622e-04
  7.3819809e-02   5.2186591e-04
 -1.1909436e-01   2.8304610e-06
 -1.0094235e-02   5.6747889e-05
  3.1009683e-02   7.5463373e-05
 -5.9773725e-01   5.5800698e-04
 -1.3581526e-01   2.0298977e-04
  2.0101495e-02   2.5181792e-04
 -3.2047415e-01   4.9883517e-04
 -2.6867998e-01   6.9323007e-04
  4.7757190e-01   1.8196284e-04
 -1.6472368e-03   2.0303512e-04
 -1.5022124e-02   4.8721861e-04
 -5.1001238e-04   1.1102220e-04
 -4.1197610e-01   3.9506602e-05
  8.1353374e-02   3.1690029e-04
 -6.2666112e-01   3.1438135e-04
  1.1034576e-05   2.7747802e-04
  8.6565524e-02   2.1451099e-04
 -2.5657958e-01   2.1647516e-04
 -1.9743288e-01   2.6627127e-05
 -1.3621794e-01   1.0630663e-05
 -1.8064998e-01   1.6738338e-04
  3.9201802e-01   5.6011422e-04
  1.8493587e-01   9.4095492e-05
  8.6396961e-03   2.5662669e-06
 -8.5856408e-02   1.2799853e-04
 -1.4084570e-01   5.6213402e-04
  5.5180732e-02   7.2809274e-04
  5.7821834e-01   4.5950354e-05
  1.6436201e-02   6.6161519e-05
 -7.3620076e-03   1.1867832e-05
 -2.3831500e-01   1.9299464e-04
 -2.2285606e-01   1.7758879e-05
 -9.7671196e-02   1.8269804e-05
  3.4503534e-01   2.2488783e-05
 -1.9830057e-01   4.8528516e-04
  1.7467399e-01   1.2466268e-04
  7.6205570e-01   9.2505834e-05
 -4.0525636e-03   4.1933645e-06
 -7.7932503e-04   8.3287148e-04
  4.3579844e-01   4.2645490e-05
 -8.2910948e-02   8.3029043e-04
  1.8339743e-01   1.6235067e-04
 -2.3798116e-03   8.4035339e-05
 -1.9931765e-03   7.3367514e-04
 -4.5833242e-01   2.3300080e-04
 -4.0412453e-01   1.0169128e-05
  4.3343683e-03   2.2735696e-04
 -3.9478573e-03   8.6367239e-05
 -1.1752466e-02   4.7480418e-05
 -5.7258838e-01   7.2564864e-05
 -3.4672031e-01   4.5218068e-04
  1.4667930e-04   1.5355329e-04
  5.7314010e-04   2.6267448e-06
 -1.1960186e-02   1.3424788e-04
 -2.3196167e-01   8.0273770e-05
 -8.7697849e-02   1.5846026e-05
 -1.2791333e-04   1.5917316e-05
  3.9958826e-01   1.8154569e-05
  1.2924919e+00   1.9544562e-04
  8.4315068e-01   7.0720739e-06
  3.2623619e-01   2.0926610e-04
 -2.6940465e-01   1.2810058e-05
 -2.4939191e-01   2.1214544e-05
 -2.7876058e+00   5.8954225e-05
 -1.1088156e-01   6.7735782e-05
  1.6710551e-01   1.9208934e-05
 -5.9978876e-02   3.1748765e-05
  1.4741720e-02   5.9638103e-04
 -5.6264019e-01   1.1975485e-05
  3.6161783e-01   6.8833900e-04
  6.4893566e-02   3.2203557e-04
  2.1345723e-01   5.0080063e-05
  1.2764424e-01   5.2197155e-04
 -1.4494175e-01   4.7963663e-04
  4.3524124e-02   4.1303632e-04
 -5.5979948e-02   7.5894219e-05
  4.9782580e-01   4.3741671e-05
 -2.5101617e-02   1.3977550e-04
  6.3870072e-02   6.3077146e-05
 -1.7733142e-01   1.4351865e-05
  1.6714138e-01   7.8739096e-05
  3.5955778e-01   3.1425956e-05
  5.3278031e-03   2.0647063e-05
  9.8836154e-02   1.1486518e-04
  3.4466723e-01   7.1011200e-06
 -4.3006605e-01   7.5263888e-06
 -5.8077824e-01   3.5014851e-05
  1.3373893e-01   1.8070066e-04
  3.7769422e-02   1.7369025e-04
  4.7208884e-01   4.7473195e-06
  5.0080472e-01   7.1444410e-05
 -2.4519303e-01   4.0978037e-05
  1.9765589e-03   1.7892724e-04
  2.6337974e-02   1.0305640e-04
  3.0790785e-01   7.0340939e-05
 -1.8397927e-01   7.9070101e-04
  1.5735903e-01   5.2418583e-04
  1.9543594e-02   3.7037265e-05
  3.3962138e-02   8.4523221e-05
  2.3938255e-01   1.0848276e-04
  6.5282597e-03   1.9597761e-04
  1.3175774e-01   5.0129829e-06
  4.0636137e-01   8.2503924e-05
  9.9369101e-02   3.3579334e-05
 -1.2285115e-01   9.1126145e-05
 -1.6370277e-01   7.4054020e-05
 -4.3065008e-02   1.3562573e-04
  4.0341686e-02   9.7495783e-04
  2.7901882e-01   1.6867698e-05
 -1.4846435e-01   2.7985947e-04
 -2.3930357e-01   3.4996698e-04
  5.7518873e-02   2.8362832e-04
  2.9922375e-02   1.6823795e-04
  5.9207162e-04   2.2577378e-05
 -1.4703548e-01   1.2386164e-04
 -3.7075887e-03   5.0443374e-05
  5.5226415e-01   1.7777875e-05
 -1.3220466e-04   1.5706930e-04
 -8.7077685e-02   1.6832010e-04
 -1.4195894e-01   2.3216176e-04
 -1.1632055e-01   9.3337054e-05
 -6.7170277e-02   1.1764417e-04
 -1.1836001e-01   7.6098411e-05
 -2.0657582e-02   1.4524604e-03
 -2.1480535e-01   2.8012382e-04
  2.9888630e-01   1.4030881e-04
  6.3719170e-04   9.0652998e-07
  6.6244951e-03   1.3019810e-04
 -2.5674202e-02   4.0689185e-05
 -7.9250145e-01   1.1348791e-04
  2.1734782e-02   1.0405651e-04
  7.1431205e-02   3.3883788e-04
 -7.4384592e-02   2.3934193e-05
 -2.9058728e-02   2.8254470e-05
 -7.0589542e-02   2.8584947e-04
  3.4395829e-01   6.3918189e-05
  2.4458760e-02   7.6590390e-05
 -9.9100046e-02   1.3285560e-04
 -1.3022404e-03   1.6373841e-04
 -2.7033087e-05   1.9846011e-05
  2.3540524e-03   1.0708605e-04
  7.2242093e-04   7.6661790e-06
  1.4476941e-04   6.6754037e-05
  4.4471735e-01   2.9954975e-04
  3.2067233e-01   3.3982957e-04
 -2.2238265e-03   8.4083447e-05
 -1.6314188e-03   6.0337246e-05
 -1.4947053e-03   6.1146602e-05
  4.8942934e-03   1.7561021e-04
  6.1182100e-03   2.8092502e-06
 -1.1694480e-03   1.1445093e-04
  4.8768804e-03   4.9362169e-04
 -9.6958384e-02   2.3715261e-06
  1.8904799e-03   6.6698594e-05
 -3.4299875e-03   1.8208098e-04
 -7.4686577e-05   9.7469077e-05
 -8.8530491e-05   1.3024922e-04
 -6.3036457e-02   1.2300920e-05
  5.9832456e-03   7.4314201e-05
  7.4157212e-04   1.2834504e-06
 -2.2555243e-04   4.7771962e-05
 -5.2287369e-03   2.8127822e-04
 -2.3644865e-02   1.3243029e-04
 -3.3003478e-03   2.1294034e-05
  1.3627661e-04   3.5676803e-05
 -3.6894718e-01   5.7031598e-04
 -1.7313722e-03   3.1628183e-04
 -1.2653343e-01   3.8088413e-04
  3.7353780e-04   2.7315758e-05
 -2.1183479e-04   7.9796946e-06
 -8.0130821e-01   8.7838062e-06
 -1.0050350e-01   5.0117040e-05
  4.3739458e-03   3.4506936e-04
 -3.0338983e-03   3.8393126e-05
  3.6118142e-02   1.8659091e-04
  1.9622122e-01   7.2428440e-05
 -2.6923125e-03   1.1753188e-04
  1.0292895e-01   5.1025499e-04
  1.6139844e-01   4.6337632e-04
  8.4868353e-03   1.8442441e-04
  7.5858012e-02   1.4947768e-04
  1.0756768e-02   3.8366200e-04
 -7.7435013e-04   2.1446283e-05
  6.1132133e-01   2.7259908e-05
 -1.5615085e-01   1.4496088e-04
 -6.3330494e-02   3.5992369e-05
 -9.9056773e-03   2.4066608e-04
  1.4650327e-03   9.2706316e-05
  4.3018376e-03   1.5448849e-04
  3.5804886e-01   1.5829087e-06
 -8.1470326e-02   8.1968028e-06
  9.3447417e-04   1.9122126e-04
 -2.9294805e-03   4.5228626e-05
 -2.3518431e-01   3.3111323e-04
  1.6269508e-01   2.1934352e-04
 -2.0968709e-02   8.7595632e-05
  1.9312909e-01   7.7398166e-05
 -1.0985579e-01   1.7118615e-05
 -3.5036623e-01   8.3804975e-05
 -2.9795802e-01   1.4044731e-06
 -4.5263125e-03   2.5520072e-04
  2.1730782e-02   1.1964765e-05
 -5.3877059e-02   1.2978636e-04
  1.2424375e-02   5.4976926e-04
 -3.1220040e-01   8.0715073e-04
  3.9552888e-03   2.4948252e-04
  4.3104142e-01   1.7568027e-04
 -3.7373793e-01   4.8422837e-05
 -4.1246310e-02   9.8213110e-05
 -3.6867103e-01   2.7242095e-05
 -7.0226647e-02   3.8987823e-06
  9.2310727e-02   5.0551691e-05
  5.8439568e-02   4.7049212e-05
 -1.3760492e-01   1.1516735e-04
 -2.6050726e-02   5.7874631e-06
 -2.3923628e-01   1.5081931e-04
 -7.4046352e-03   9.2202890e-06
 -4.2199376e-01   1.4377089e-04
  1.7205622e-02   1.4716524e-04
 -3.5344160e-01   1.3548160e-04
  1.7321785e-01   9.5902957e-05
  1.4191088e-01   3.5735723e-04
 -2.0450719e-01   5.9353368e-04
  6.7317492e-01   6.9298425e-05
 -8.2852626e-01   6.1235471e-05
  1.2421443e-01   1.4909745e-04
  2.3090604e-01   1.6249323e-04
  5.4905152e-01   3.3122985e-04
 -5.8160621e-01   9.1377669e-04
  3.4669125e-01   1.5493339e-05
 -1.2330729e-02   2.0449465e-04
  8.5414037e-02   2.8167406e-04
 -2.6889420e-03   3.1028925e-05
 -5.3347594e-01   1.0220711e-03
  4.4989467e-01   1.3392890e-04
 -1.1446670e-01   9.3793677e-04
  5.2755196e-02   8.4862381e-04
  1.3166830e-01   2.9044767e-04
 -6.8997139e-01   4.8707858e-07
  2.3320240e-01   1.7590773e-05
  6.4686574e-03   3.1816111e-05
  4.5720026e-02   3.6236865e-04
  8.2395738e-03   2.9736993e-04
 -3.6529994e-01   2.0197615e-04
 -1.2739702e-03   1.1874787e-05
 -2.3469936e-04   7.4940217e-06
  4.2604885e-01   2.1026492e-05
  2.7176829e-03   2.0715689e-04
  2.6180115e-01   8.5196720e-05
 -1.2173706e-03   1.2088216e-04
  2.5671232e-01   1.7920011e-04
 -1.9300817e-01   1.5320727e-05
 -5.8731589e-02   4.0613941e-05
  9.6981026e-02   2.8655064e-04
  1.6277394e-01   2.8640794e-04
 -2.5507703e-02   3.2273689e-05
 -1.5022403e-01   1.6905564e-05
 -6.9137006e-03   1.2459370e-05
 -3.0253143e-03   3.7335591e-05
 -1.2765797e-03   9.4745537e-06
 -1.2288946e-01   8.3029561e-05
 -8.4447592e-02   6.1255108e-05
 -1.8425104e-03   2.5410514e-04
  8.2787327e-02   3.8336785e-04
  3.3720559e-01   1.7298812e-04
  7.9962634e-02   6.7335409e-06
  1.7878602e-01   2.2226082e-04
  1.2390660e-02   1.4573877e-04
  1.7807342e-01   8.4006462e-07
 -3.5712188e-03   2.2858725e-04
  4.2631885e-01   8.2025705e-05
  7.7755814e-03   2.5757615e-04
  6.7906991e-02   1.8552791e-04
 -5.3570372e-01   4.1357951e-05
 -9.2360415e-02   2.6501031e-04
 -8.7684262e-01   2.6638780e-04
  8.9815900e-02   1.0120188e-04
 -8.4787965e-02   1.4204465e-05
  5.8958113e-01   4.3494081e-05
  2.7967101e-01   2.0217023e-05
  3.3425651e-05   2.6617220e-04
 -1.1615901e-01   2.1535056e-05
 -2.5425566e-04   1.0266754e-05
 -2.3051111e-02   4.9283142e-05
  7.1629807e-02   2.1619574e-04
  5.7122737e-01   7.5129751e-04
 -2.0451250e-02   1.4267933e-04
 -5.6564063e-02   1.8161788e-04
  8.8968091e-03   2.9532643e-04
  3.0870659e-02   2.6206166e-04
  4.7888988e-01   4.9712740e-05
  1.5395069e-02   5.7765401e-06
 -2.0811336e-01   5.4873406e-05
  2.8792146e-01   5.3235090e-06
  4.2123309e-01   3.0991415e-04
  5.6908460e-04   7.4966178e-05
  2.6399386e-01   7.5169613e-05
 -1.5877704e-01   3.2793885e-06
  1.7300150e-01   1.1923755e-04
 -2.1104376e-01   2.6590084e-05
  4.8131041e-02   2.8086239e-05
  8.6037809e-01   2.3218574e-05
  3.3163050e-01   7.5500509e-07
  9.3173474e-02   3.3696633e-05
  3.5570401e-01   2.6932110e-05
  9.5367864e-02   5.7763975e-07
 -6.6018060e-02   6.5457338e-05
 -1.4477229e-01   1.3037906e-05
  5.7082079e-02   2.6123091e-05
  9.0208136e-02   4.2912998e-05
  2.4365936e-03   1.6083246e-05
 -3.8334001e-02   1.2830377e-04
 -2.0651238e-01   1.7663588e-04
 -6.7644320e-02   7.2496092e-05
  3.0972704e-01   9.3843346e-06
 -2.3810897e-02   5.4242741e-05
 -1.2511589e-01   7.9829326e-05
 -9.1077596e-02   2.1739354e-06
  1.9367594e-01   1.1211749e-05
  3.7447672e-02   6.1163546e-06
 -5.2875578e-02   2.2294194e-06
 -1.5679404e-01   2.3231526e-06
  3.8353615e-02   9.0673129e-06
 -2.5479970e-02   7.1135604e-05
  4.9874913e-02   3.6964636e-06
 -4.0308410e-01   1.2228514e-05
 -2.4554464e-01   1.8009719e-04
 -2.4061340e-03   5.0828903e-04
 -4.6062100e-04   6.8836562e-05
 -4.7426274e-05   2.5840516e-05
 -1.0218656e-03   1.1864587e-04
  4.3209409e-03   3.4743509e-05
  2.0971925e-03   1.0139139e-04
 -6.9172110e-04   3.2032892e-04
 -1.2437678e-03   1.8455902e-04
 -1.3247701e-04   4.4402590e-05
 -4.4774410e-04   1.6902828e-04
  3.7532563e-03   9.2839560e-04
 -2.9121845e-03   1.3889263e-04
 -5.4216420e-04   4.5956687e-05
  2.0889133e-04   4.2495849e-05
  4.3968633e-03   1.1504742e-04
  2.8518306e-03   5.8469370e-05
 -3.2130341e-05   2.8843663e-06
  1.1915908e-03   6.7095978e-05
 -1.5230211e-03   3.6205846e-04
 -7.3965140e-02   3.2984032e-04
 -2.1282884e-03   1.0126752e-05
  1.3435630e-03   4.3235504e-04
  7.5987377e-04   4.8700586e-04
 -5.0819322e-04   8.8552624e-06
  8.4991165e-02   1.4762438e-05
 -5.4997979e-03   2.7573644e-04
  4.8400904e-04   1.4316155e-04
  1.8370050e-01   7.6906108e-06
  3.5906667e-01   1.2548324e-05
  5.7734263e-01   9.4503675e-06
  3.2614353e-01   3.0213539e-04
 -1.5461925e+00   2.0573227e-06
 -1.7117083e-01   4.8722002e-05
 -1.1320395e+00   7.1067980e-06
  1.3748764e-01   6.1235245e-05
 -3.2638070e-01   2.1623373e-05
  1.6289471e-01   1.0924231e-04
  1.2966883e+00   1.9721670e-06
  4.0213799e-01   6.5036191e-05
  4.3400645e-01   1.4239788e-04
  6.1549413e-01   2.5878773e-05
  1.1070601e+00   3.6342866e-05
  6.3591754e-01   2.5089787e-05
  1.1950269e-01   5.7221991e-05
  1.4971964e-01   1.6492674e-04
  3.4241760e-01   1.0869930e-04
  5.9832394e-01   1.3015953e-04
 -1.3831066e+00   3.4954412e-06
 -6.0207941e-02   2.1936626e-06
 -3.1634863e-02   1.7194489e-04
  2.8739043e-02   1.5294897e-04
 -9.0378940e-01   3.5603919e-06
  2.6866816e-02   1.5177921e-05
  3.0719109e-02   4.1665364e-05
 -4.5101711e-01   7.5271739e-05
  1.2291801e+00   1.4719017e-05
  7.3757145e-04   8.8898931e-05
 -2.3575719e-01   2.1565661e-06
 -4.2462608e-01   1.7426430e-05
 -1.0111499e-01   1.6898307e-06
  1.1384394e-01   1.3721386e-05
  2.1670978e+00   2.3296650e-06
 -2.3188349e-02   1.9965007e-06
  1.8622427e+00   2.0795986e-05
  1.3195516e-01   2.2201442e-05
  8.6571139e-01   9.0908730e-07
  6.8984255e-02   1.1785980e-05
 -2.9492673e-01   7.2195826e-07
 -1.9449967e-01   2.2267141e-05
  7.6440625e-02   3.5177636e-06
  7.4281335e-02   2.0147807e-05
  3.3382905e-01   4.4187191e-06
 -1.1609213e-01   1.8365370e-05
  1.0878092e-01   1.9012839e-05
 -1.0911451e-01   3.1103536e-06
 -1.5743686e-01   1.9949879e-07
 -4.5319748e-01   1.0789327e-05
  1.8718529e+00   3.6275380e-06
 -1.0129673e-01   1.6496590e-05
 -5.9093889e-02   2.5409508e-07
  6.0238477e-02   5.5438255e-07
 -1.1614829e-01   8.3245950e-06
  3.2044727e-01   1.9706056e-05
  1.0753548e-01   9.2881583e-06
  1.3457973e-01   2.8374827e-05
 -4.8390642e-01   1.0303184e-05
 -1.1435747e-02   1.5573870e-07
  6.5415573e-01   2.8765069e-05
 -1.3408895e-01   5.0555849e-05
  1.3432970e+00   1.9800955e-05
 -7.0605171e-01   6.8238473e-06
 -4.5709223e-01   4.2446089e-04
 -6.3785613e-01   3.8850241e-05
  6.7476082e-01   6.9936577e-06
 -2.8897400e+00   5.2707397e-05
 -9.7734642e-01   1.2432213e-04
  1.3390960e-01   1.1768081e-04
  7.0302033e-01   1.0250335e-05
  1.3701719e-05   2.4494805e-04
 -2.2529982e-01   1.6962705e-04
  2.2451797e-01   4.4190314e-05
  2.0707944e-01   1.8148233e-04
 -7.1478897e-01   1.7167389e-05
 -1.3971977e+00   4.0591045e-04
  8.2327416e-03   1.4375873e-05
  5.3312510e-01   8.2382241e-05
 -5.2847236e-01   1.6312063e-04
  2.9022190e-01   3.1712896e-04
 -6.1706084e-01   1.3032257e-04
  1.7882127e+00   1.1004361e-04
 -9.9349642e-01   6.3045544e-04
  8.7717742e-01   1.1028931e-05
  2.2175952e-03   2.3337563e-04
 -5.2434283e-01   3.1689618e-05
 -4.1632736e-01   4.2294032e-05
  1.2138823e+00   4.9560960e-05
 -1.5526389e-01   3.8578082e-04
  7.4541338e-02   1.6505757e-04
  4.1055974e-01   5.8532535e-04
 -1.7963670e-01   2.0243447e-06
  2.7686572e-01   3.2774511e-05
 -6.2343645e-01   9.0661415e-06
  1.1629701e-02   2.3868584e-05
 -3.7246427e-01   2.1274050e-04
 -1.1733149e+00   1.8799621e-05
 -1.7967783e-01   6.6475087e-04
 -2.2676980e-01   3.9912877e-05
 -2.1863136e-02   7.1721362e-05
  1.3446574e-01   3.4256045e-05
  9.4631571e-01   1.5103351e-05
  5.2649856e-01   1.4039075e-06
 -5.9505355e-01   4.2438237e-06
  1.2152159e-01   6.6902809e-05
  3.8848621e-01   1.6453086e-07
 -6.7377716e-01   2.1561421e-04
 -2.9874110e-01   8.4915853e-05
  6.0663444e-01   2.2582421e-05
  1.9154586e-01   1.7971166e-05
  7.7958637e-01   1.7096347e-05
 -9.3634909e-01   1.4859020e-04
 -5.8974695e-01   6.0366987e-05
 -1.1899175e-01   1.4148035e-05
 -5.3655732e-01   4.8227580e-06
 -6.9599614e-02   1.1855747e-04
 -6.9849133e-01   1.6456883e-04
  5.1594818e-01   8.8150964e-06
 -1.4685053e+00   5.3370797e-05
  4.4297862e-01   3.5386922e-05
 -5.4502654e-01   4.7546078e-04
  1.7671354e+00   1.5441045e-04
 -7.9026461e-02   8.8003428e-05
  9.8011327e-01   3.6127753e-05
 -4.5558167e-01   3.6167155e-05
 -9.1611320e-01   1.0313101e-04