50
Lattice="8.637881759 0.0 0.0 0.0 8.637881759 0.0 0.0 0.0 12.459647247" Properties=species:S:1:pos:R:3:force:R:3 energy=-223.86866753 config_type=nep2xyz virial="10.5347457924806 0.0 0.0 0.0 10.534739990051179 -5.802429419043884e-06 0.0 -5.802429419043884e-06 9.67387995658299" volume=929.6516760194718 pbc="T T T"
Li       1.82437000       2.37040000       3.54149000       0.00507800       0.00303400       0.00384300
Li       6.81351000       6.26748000       3.54149000      -0.00507600      -0.00303600       0.00382000
Li       2.37040000       6.81351000       9.77131000       0.00305000      -0.00506800       0.00385200
Li       6.26748000       1.82437000       9.77131000      -0.00303600       0.00507700       0.00383200
Li       1.82437000       6.26748000       3.54149000       0.00507700      -0.00303100       0.00382800
Li       6.81351000       2.37040000       3.54149000      -0.00507700       0.00303100       0.00382700
Li       2.37040000       1.82437000       9.77131000       0.00303200       0.00507700       0.00384200
Li       6.26748000       6.81351000       9.77131000      -0.00303300      -0.00507700       0.00382100
Li       0.00000000       0.00000000      11.81045000       0.00000000       0.00000000      -0.00161500
Li       0.00000000       0.00000000       5.58063000       0.00000000       0.00000000      -0.00161400
Li       4.31894000       4.31894000       6.78337000       0.00000000       0.00000000       0.00444900
Li       4.31894000       4.31894000       0.55355000       0.00000100       0.00000000       0.00444600
Li       2.20311000       6.25365000       0.42250000      -0.02798100      -0.00563500      -0.01623000
Li       6.43477000       2.38424000       0.42250000       0.02797600       0.00564600      -0.01621700
Li       2.38424000       2.20311000       6.65232000       0.00563500      -0.02797800      -0.01621600
Li       6.25365000       6.43477000       6.65232000      -0.00565400       0.02797900      -0.01623000
Li       2.38424000       6.43477000       6.65232000       0.00563200       0.02797700      -0.01622000
Li       6.25365000       2.20311000       6.65232000      -0.00565200      -0.02798100      -0.01622800
Li       2.20311000       2.38424000       0.42250000      -0.02798100       0.00563800      -0.01621700
Li       6.43477000       6.25365000       0.42250000       0.02797800      -0.00563500      -0.01623200
Sn       4.31894000       4.31894000       9.94250000       0.00000000       0.00000000       0.00041600
Sn       4.31894000       4.31894000       3.71268000       0.00000000       0.00000000       0.00041600
P        0.00000000       0.00000000       8.66847000       0.00000000       0.00000000      -0.03266600
P        0.00000000       0.00000000       2.43864000       0.00000000       0.00000000      -0.03266600
P        0.00000000       4.31894000       6.32360000       0.00000000       0.00000000      -0.03460700
P        4.31894000       0.00000000       0.09377000       0.00000000       0.00000000      -0.03460700
S        4.31894000       2.38217000       5.07009000       0.00000000      -0.25152700       0.10368500
S        4.31894000       6.25571000       5.07009000       0.00000000       0.25152800       0.10368200
S        2.38217000       4.31894000      11.29991000      -0.25152700       0.00000000       0.10368500
S        6.25571000       4.31894000      11.29991000       0.25152700       0.00000000       0.10368200
S        0.00000000       6.01398000       5.18195000       0.00000000       0.24985300      -0.17562000
S        0.00000000       2.62390000       5.18195000       0.00000000      -0.24985300      -0.17561800
S        2.62390000       0.00000000      11.41177000      -0.24985400       0.00000000      -0.17561800
S        6.01398000       0.00000000      11.41177000       0.24985300       0.00000000      -0.17562000
S        4.31894000       1.65589000       1.24018000       0.00000000       0.27478400       0.26108500
S        4.31894000       6.98199000       1.24018000       0.00000000      -0.27478300       0.26108100
S        1.65589000       4.31894000       7.47000000       0.27478300       0.00000000       0.26108500
S        6.98199000       4.31894000       7.47000000      -0.27478400       0.00000000       0.26108100
S        0.00000000       6.94062000       1.30431000       0.00000000      -0.30682000      -0.17512100
S        0.00000000       1.69727000       1.30431000       0.00000000       0.30682100      -0.17512300
S        1.69727000       0.00000000       7.53414000       0.30682000       0.00000000      -0.17512300
S        6.94062000       0.00000000       7.53414000      -0.30682000       0.00000000      -0.17512100
S        0.00000000       1.66589000       9.80684000       0.00000000       0.36133600       0.20173200
S        0.00000000       6.97199000       9.80684000       0.00000000      -0.36133700       0.20173000
S        6.97199000       0.00000000       3.57702000      -0.36133700       0.00000000       0.20173000
S        1.66589000       0.00000000       3.57702000       0.36133700       0.00000000       0.20173200
S        4.31894000       6.23901000       8.55247000       0.00000000       0.22875700      -0.16115000
S        4.31894000       2.39887000       8.55247000       0.00000000      -0.22875600      -0.16114900
S        6.23901000       4.31894000       2.32264000       0.22875800       0.00000000      -0.16114900
S        2.39887000       4.31894000       2.32264000      -0.22875700       0.00000000      -0.16114900
16
Lattice="6.043551575 0.0 0.0 -0.01090819 6.035878934 0.0 0.038927907 0.019260118 6.084460789" Properties=species:S:1:pos:R:3:force:R:3 energy=-28.73392078 config_type=nep2xyz virial="13.735781832817851 0.026097704266049123 0.16198059156115463 0.026097704266049123 13.205011685606687 -0.11254608990321296 0.16198059156115463 -0.11254608990321296 13.432960358124861" volume=221.94984679035971 pbc="T T T"
Li       5.95806000       0.05676000       0.03827000       0.04308100       0.11161900      -0.24677700
Li       6.03823000       5.93107000       2.89706000       0.03367600       0.11682500       0.30558200
Li       0.09339000       2.84875000       0.06812000      -0.16195000       0.09401300      -0.22752500
Li       0.04678000       2.95285000       2.98302000      -0.00105000       0.27674400       0.25771400
Li       2.95487000       0.17177000       0.14346000       0.14064800      -0.24653000      -0.19436400
Li       3.01433000       6.01621000       3.00445000       0.08364300      -0.19560400       0.00347900
Li       3.01873000       3.01031000       0.13248000       0.03758900      -0.00882700      -0.42238300
Li       3.05842000       3.18105000       2.98011000      -0.12162700      -0.02568100       0.17891500
Li       1.63021000       1.61473000       1.75315000      -0.11913900      -0.23287400      -0.20578700
Li       1.56725000       1.51651000       4.52842000      -0.09439400      -0.02269800       0.02855000
Li       1.40000000       4.59792000       1.42284000       0.12386800      -0.10684700      -0.02560100
Li       1.57765000       4.57730000       4.53993000      -0.08201500      -0.04681600       0.18951000
Li       4.57945000       1.54963000       1.64222000      -0.04670400      -0.07148800      -0.15749400
Li       4.46513000       1.44439000       4.40952000       0.07455100       0.14252100       0.24337400
Li       4.50445000       4.47829000       1.45767000       0.03606900       0.10622900      -0.09907600
Li       4.61295000       4.43998000       4.51174000       0.05375300       0.10941500       0.37188200
24
Lattice="4.506491589 0.0 0.0 -0.015762941 4.480298998 0.0 -0.047069534 0.049130055 8.909420536" Properties=species:S:1:pos:R:3:force:R:3 energy=-117.70197256 config_type=nep2xyz virial="5.926531369425033 0.2645725015239994 0.4276177223162626 0.2645725015239994 7.246983324093688 -0.45328724822522437 0.4276177223162626 -0.45328724822522437 8.528289335957728" volume=179.88502945148187 pbc="T T T"
Li       1.10624000       3.36657000       1.10543000       0.03841700      -0.02323200       0.05822600
Li       1.08975000       3.39627000       5.56943000      -0.04687100      -0.05159700      -0.00364800
Li       3.35377000       1.14593000       3.33846000       0.01508600      -0.04591000       0.04665600
Li       3.33071000       1.15942000       7.79801000       0.02770100       0.04577700      -0.01495300
Li       1.10378000       1.13287000       3.33631000      -0.01086200       0.03947800       0.04172100
Li       1.08372000       1.15811000       7.80014000      -0.02391600       0.06384700      -0.03531000
Li       3.36521000       3.36490000       1.11632000      -0.03856100       0.03421900      -0.01905700
Li       3.33468000       3.38736000       5.56881000       0.03330900       0.01035200      -0.01031900
Li       3.35160000       3.37834000       3.33592000       0.02167200       0.00856000       0.05574100
Li       3.32557000       3.40300000       7.79535000      -0.00383400      -0.01985000      -0.00396500
Li       1.11329000       1.12500000       1.11449000       0.02031700       0.01379700       0.01074900
Li       1.09767000       1.14977000       5.57130000      -0.06048100       0.04905300      -0.01174100
Li       3.36990000       1.13165000       1.11090000      -0.00952100      -0.05593700       0.01121600
Li       3.34507000       1.14631000       5.57209000       0.04087900       0.01661200      -0.02896800
Li       1.10152000       3.38366000       3.34375000      -0.04198000      -0.05824500      -0.00720000
Li       1.06736000       3.40832000       7.79612000       0.02062300      -0.04932300      -0.01934700
O       -0.04700000       0.04977000       8.90942000      -0.01026300      -0.00099600       0.00687800
O       -0.02195000       0.02762000       4.45856000      -0.02556900      -0.03648800      -0.04655500
O        4.47969000       2.25000000       2.22436000       0.08893200       0.02785300       0.01198700
O        4.46182000       2.27843000       6.68167000       0.00599400      -0.01084600       0.03863200
O        2.23031000       4.48662000       2.22940000      -0.05838800       0.05970900      -0.04783100
O        2.21489000       0.04110000       6.68419000       0.02730000      -0.05482600       0.01635600
O        2.24748000       2.24182000       0.00127000      -0.04469000      -0.01385200      -0.00965900
O        2.21790000       2.26007000       4.45747000       0.03339800       0.05186200      -0.03900500
24
Lattice="4.976711814 0.0 0.0 0.012957463 4.952034213 0.0 -0.028071901 0.038949085 9.908017259" Properties=species:S:1:pos:R:3:force:R:3 energy=-88.97368429 config_type=nep2xyz virial="54.912975410281426 -1.9635124465874052 -0.12487397935574487 -1.9635124465874052 55.29484426080165 -1.0687740389438596 -0.12487397935574487 -1.0687740389438596 55.25083698486467" volume=244.18157111736267 pbc="T T T"
Li       3.70395000       1.22246000       1.17645000      -0.04166000       0.30262700       0.64887900
Li       3.72287000       1.17118000       6.12824000       0.14316800       0.53439000       0.36983500
Li       1.27269000       3.63312000       3.72342000      -0.31710000       0.60971600      -0.08924100
Li       1.32146000       3.75180000       8.64818000      -1.07029200       0.08074100       0.02589300
Li       3.67527000       3.76400000       3.69480000       0.40228300      -0.21050300       0.29940000
Li       3.71160000       3.76403000       8.65671000       0.64443600      -0.13657700       0.13755400
Li       1.20904000       1.28580000       1.27727000       0.04559800       0.02138700      -0.13089300
Li       1.24406000       1.26605000       6.22994000      -0.02049100      -0.19144500      -0.33629200
Li       1.23440000       1.19951000       3.74100000      -0.24160300       0.29375800      -0.01025900
Li       1.28594000       1.22636000       8.72135000      -0.25308700       0.34009100      -0.28924700
Li       3.67638000       3.72532000       1.27412000       0.52773800       0.09830400      -0.15443300
Li       3.72167000       3.70560000       6.19169000       0.09844600      -0.10578300      -0.06256500
Li       1.23185000       3.74477000       1.24469000      -0.32670100      -0.06170300      -0.03374500
Li       1.24344000       3.74001000       6.12009000       0.20328300      -0.13445600       0.54159700
Li       3.68441000       1.24150000       3.67314000       0.39786200      -0.04983800       0.16381300
Li       3.71543000       1.33748000       8.65553000       0.00839500      -0.14530600      -0.13216900
S        4.93188000       0.07773000       9.89539000       0.19144700      -0.67129400       0.07007800
S        0.01240000       4.92176000       4.92563000      -0.20889200       0.32303200      -0.04518200
S        4.95791000       2.52011000       2.54052000      -0.27696700      -0.55199900      -0.86668600
S        0.02777000       2.50739000       7.42664000      -0.17865700      -0.06592100       0.06600900
S        2.44839000       4.94973000       2.50864000      -0.00076700       0.37089100      -0.72053300
S        2.50520000       4.95633000       7.44710000      -0.00895800       0.48702900      -0.65349600
S        2.45768000       2.57315000       9.90079000       0.08048400      -0.67585400       0.47299000
S        2.49219000       2.48145000       4.91613000       0.20203800      -0.46128600       0.72869300
30
Lattice="5.17134578 0.0 0.0 -2.589288323 4.51038451 0.0 -0.085917313 -1.046855937 39.898817355" Properties=species:S:1:pos:R:3:force:R:3 energy=-169.05963379 config_type=nep2xyz virial="38.52191106387066 4.520645122035053 -0.8610459420568439 4.520645122035053 28.902979217784026 0.5761313823364601 -0.8610459420568439 0.5761313823364601 -1.280335202080409" volume=930.6302553801291 pbc="T T T"
B       -0.83428000       2.41212000       3.28309000       0.83597100      -0.09377300       0.29259200
B        1.76150000       3.92106000       3.53516000       0.72426500       0.64314200      -1.35067500
B       -0.14875000       1.84701000      10.00296000      -0.35108800      -0.21238700       1.04513600
B        2.41074000       3.27502000      10.26628000      -0.85062900       1.16926200      -0.65450400
B        0.86161000       0.08042000      18.99218000      -2.74698500      -1.61711200      -0.30742100
B        3.30352000       1.58519000      19.06238000      -0.37456500      -0.63893200      -1.35963000
B        0.29630000       1.32023000      24.31668000      -0.72578300       2.81367200      -0.58710600
B        2.94188000       2.85459000      24.16788000      -1.10192300       1.46213900       0.43574100
B        1.57950000       1.18733000      28.74578000       0.81884800      -1.67530400       0.85208400
B       -1.03833000       2.55548000      28.90728000       1.20222200      -1.30552200      -0.01249500
B        3.30085000      -0.86109000      34.22448000       0.28913100      -1.77988700       0.35945700
B        0.76475000       0.59481000      34.39348000      -0.37361000      -0.48779600      -0.88310300
S        0.01604000       3.97611000       3.33916000      -0.60556400       0.60814600       0.39230300
S        0.15280000       0.91793000       3.24323000      -0.49642800      -0.22957500       0.47965500
S        2.58855000       2.40042000       3.15877000      -0.45820600      -0.92823000       0.18792400
S       -1.05544000       3.37839000       9.70684000      -0.15146700       0.58817200      -0.19015100
S        3.95930000       0.42783000      10.20105000       1.50819200      -2.31367200      -0.14484500
S        1.54016000       1.71101000      10.59265000      -0.15564200       0.76855000      -0.05696400
S        1.48085000       1.60395000      18.54564000       2.02072600       1.11861500       0.24294200
S       -0.86635000       3.05197000      19.31098000      -0.15217800      -0.03275400       0.71061300
S        4.09957000      -0.02526000      18.67649000       1.25329300       1.16900000       0.72110600
S       -0.48711000       2.96372000      24.10318000       0.12641900      -0.41431500      -0.00821300
S        4.54365000      -0.08314000      24.22898000      -0.93026800      -2.45418400      -0.13044400
S        1.99703000       1.37804000      24.38118000       2.62748600      -1.40751200       0.30579800
S        2.44091000       2.75683000      28.73978000      -1.88049900      -0.94361700      -0.58224500
S        2.48248000      -0.50806000      28.97078000       0.99803100       2.65762900      -0.18798500
S       -0.12480000       0.94767000      29.06138000      -1.13477600       1.26859000      -0.08355600
S        2.50203000       0.66703000      34.11138000       0.16226700       0.95532000       0.03534200
S       -0.19234000       2.05163000      34.44088000      -0.40121500       1.70547600       0.30941800
S        2.48772000       3.56898000      34.05868000       0.32397600      -0.39314000       0.16922500
24
Lattice="6.971424109 0.0 0.0 -3.564023979 6.142805963 0.0 0.132230014 1.034246271 11.587011449" Properties=species:S:1:pos:R:3:force:R:3 energy=-110.38563492 config_type=nep2xyz virial="28.18599092024713 1.8124138619031214 -3.60989061278368 1.8124138619031214 20.245899028182446 0.47792561156080704 -3.60989061278368 0.47792561156080704 4.669115439826317" volume=496.2034017340082 pbc="T T T"
S        0.13053000       2.52684000       1.63634000      -0.45006100      -0.16958300      -0.98565800
S        0.16583000       2.21813000       7.40827000       0.19671500      -0.54844900      -0.72593600
S       -2.04123000       5.51085000       1.52351000      -0.60601700      -0.56904600       0.03133400
S       -1.81158000       5.19684000       7.28810000       0.80093100       0.76077200       0.06527300
S        3.49156000       2.29933000       1.55279000      -0.03751300       0.44777600      -0.20587300
S        3.58205000       2.15888000       7.45468000      -0.40841600      -0.36140900      -1.24218300
S        1.57051000       5.55496000       1.53175000       0.55728500       0.03084300      -0.22609000
S        1.75437000       5.20020000       7.24569000      -0.39185800       0.86338800      -0.23149300
S        1.92180000       1.32966000       4.13912000      -0.60661000      -0.36442600       0.58713800
S        1.74005000       2.37603000      10.13529000       1.07341800       0.08712900      -0.31103800
S       -0.15096000       4.08443000       4.21974000       0.70449000       0.63261600       0.43970900
S        0.07248000       5.18354000      10.14909000       0.46218500       1.24917100      -0.23592000
S        5.29243000       1.29336000       4.31025000      -0.04834500      -0.64836200       0.01839600
S        5.21722000       2.35675000       9.99959000      -0.86260000      -0.18535700       0.24161600
S        3.48371000       4.43401000       4.27490000       0.16191200      -1.38080500      -0.68809500
S        3.66131000       5.25281000       9.89359000       0.67005400       1.00459900      -0.16316000
Sn      -0.07337000       1.71905000      11.52489000       0.91530600      -0.93480900       1.57775500
Sn       3.55951000       6.26704000       5.73976000      -0.93227100       1.35255500       0.60400000
Sn      -1.79548000       3.39131000       0.05749000       0.21260300      -0.09319000       0.69629400
Sn       5.34446000       3.11969000       5.96933000      -0.60220800      -0.08725700      -0.04759500
Sn       3.24741000       0.20631000       0.09789000       0.71683400       0.63707800      -1.30835500
Sn      -0.10717000       6.19654000       5.59844000       1.23420500       0.04590700       0.83133300
Sn       2.15391000       4.69484000      11.54259000      -2.54930300      -1.64890200       1.18559300
Sn       1.89325000       3.23223000       5.79958000      -0.21073400      -0.12024000       0.09295500
16
Lattice="7.925135981 0.0 0.0 -0.291738668 6.876616147 0.0 -0.019731065 0.52402646 7.921613416" Properties=species:S:1:pos:R:3:force:R:3 energy=-28.90417676 config_type=nep2xyz virial="-4.1901806584820775 1.4871547763309123 1.154424798026919 1.4871547763309123 -3.9378449986889557 -0.04406113072428508 1.154424798026919 -0.04406113072428508 -3.884794879945088" volume=431.7130231242314 pbc="T T T"
Li       0.05723000       6.84694000       0.13743000      -0.18389200       0.03422600       0.03947900
Li       7.44663000       0.45483000       3.87582000       0.59724500       0.40032400       0.41997800
Li       0.13495000       4.30331000       7.09305000      -0.12868900      -0.14268500       0.45150300
Li      -0.10582000       3.86683000       4.06920000      -0.01043200      -0.07235700       0.00826400
Li       3.53044000       6.98713000       7.74132000       0.36509200       0.31559100       0.46161500
Li       4.46342000       0.37826000       4.15929000      -0.55239000       0.38030600      -0.01033100
Li       3.39054000       3.37393000       7.71905000       0.09870300       0.32014800       0.22145900
Li       3.44818000       3.72009000       4.04257000       0.24791000       0.03852900       0.13956300
Li       1.86428000       1.71820000       2.43642000       0.04239100      -0.12545700      -0.20245400
Li       1.80050000       2.04088000       6.08850000      -0.12212300      -0.19136400      -0.43864200
Li       1.73355000       4.94659000       1.93106000       0.02339700       0.15292600      -0.10509500
Li       2.18446000       5.75211000       6.12985000      -0.27378500      -0.16211800      -0.68322000
Li       5.66104000       1.62101000       1.40209000       0.15149700       0.26292100       0.22475700
Li       5.90235000       2.30738000       6.30844000      -0.02030200      -0.18233800      -0.24630900
Li       5.76794000       5.84096000       2.57083000      -0.22519300      -0.81753100      -0.70783600
Li       5.68195000       5.58699000       5.59138000      -0.00942900      -0.21112100       0.42726700
20
Lattice="10.847124112 0.0 0.0 -0.010440528 6.229556039 0.0 -3.536134642 0.036967709 5.834929632" Properties=species:S:1:pos:R:3:force:R:3 energy=-92.33527346 config_type=nep2xyz virial="15.817742354572038 0.1428143872574891 1.0939415213761585 0.1428143872574891 17.11684313055325 -0.5896086059420426 1.0939415213761585 -0.5896086059420426 17.3342257591267" volume=394.28234350522877 pbc="T T T"
Ga      -0.00345000       5.83418000       3.61422000       0.15145200      -0.01514500       0.02273900
Ga       1.77219000       0.42245000       0.69365000       0.21424500       0.03456000       0.08790300
Ga      -1.75943000       2.53783000       3.66358000       0.09750400       0.06581900       0.13140000
Ga       0.01344000       3.72589000       0.75183000       0.01658900      -0.28653000       0.05185900
Ga       5.43139000       2.72113000       3.61362000       0.00341900      -0.06687800       0.01896400
Ga       7.20095000       3.53271000       0.69763000      -0.03501800      -0.00600900      -0.02724100
Ga       3.66763000       5.64612000       3.67162000      -0.02181700       0.09776800       0.01839000
Ga       5.43576000       0.60125000       0.75183000       0.08652600      -0.06865700       0.00677900
S        1.91633000       0.61451000       2.94505000      -0.05057000       0.51070400       0.18300600
S        3.66826000       5.62989000       0.03271000      -0.05620300      -0.53783600       0.16991500
S        0.10471000       3.65447000       2.99477000       0.40536200      -0.24013000       0.27879700
S        1.87528000       2.59551000       0.07732000       0.37734800       0.29381400       0.20718300
S        7.32537000       5.72724000       5.73720000      -0.62516400       0.41435600      -0.60838700
S        9.09964000       0.56208000       2.81605000      -0.53998300      -0.35250000      -0.50885500
S        7.32877000       3.72947000       2.94993000       0.00893900       0.60619300       0.11359100
S        9.09657000       2.51398000       0.02986000       0.08495800      -0.50089100       0.22955400
S        5.53022000       0.54096000       2.99658000       0.46089500      -0.24631300       0.24369500
S        7.29485000       5.70860000       0.07619000       0.36817800       0.28609300       0.31191600
S        1.89991000       2.61350000       5.73173000      -0.42805000       0.34462300      -0.43271400
S        3.67101000       3.67240000       2.81862000      -0.51483100      -0.33399600      -0.50144700
28
Lattice="8.729991929 0.0 0.0 -2.954370698 8.048556701 0.0 -1.855738942 -1.203847769 8.167939438" Properties=species:S:1:pos:R:3:force:R:3 energy=-133.90682347 config_type=nep2xyz virial="6.5178363616397705 1.814837439027168 1.7808041997606263 1.814837439027168 9.34183940416605 1.8831833189561882 1.7808041997606263 1.8831833189561882 7.943829445114794" volume=573.9107492869446 pbc="T T T"
P        0.38344000      -0.25364000       6.23149000       0.45006700      -1.19684300       1.63144000
P        3.39153000       7.13026000       1.59405000       0.49248100       0.00472600       0.04063100
P        5.94604000       0.60414000       5.59845000       1.55375400      -0.45941800       2.93815500
P       -2.06272000       6.45710000       2.40329000      -1.31049300       0.41392400      -0.08156000
P       -0.12566000       2.88817000       5.76805000      -0.60660400       0.16007300       0.31445700
P        4.23567000       3.96253000       2.60607000       0.34963100       1.43507700      -0.17473200
P        0.49159000       2.60669000       0.49792000       0.18834200      -0.54395900      -2.59641200
P        3.46431000       3.99768000       7.79961000       0.20893200       0.11755900      -1.56154300
S       -1.33670000       6.27910000       6.21290000      -0.02826300       0.17144100      -0.14691600
S        4.91818000       0.32914000       1.84149000      -0.19881300       0.68574100      -0.56011800
S        4.36259000       7.00880000       5.47524000       0.05894700       0.99550200       0.49990400
S        8.04436000      -0.00801000       2.41665000       0.69310000      -1.06420000      -0.66120300
S        1.28594000       1.41967000       5.25698000      -0.95838600      -0.37968800       0.89696900
S        2.86435000       5.58106000       2.96498000       0.10338100      -0.53795900      -1.23848900
S        1.99731000       1.09887000       0.35010000      -0.72680200       1.42780800      -2.01576100
S        1.75059000       5.63590000       7.70235000       1.09026300      -1.45116400       1.12595700
S        4.33423000      -0.02513000       4.95118000      -2.04482900      -1.04274900      -0.41945900
S       -0.44644000       7.20207000       3.10319000       0.12412500       0.04672800      -0.06607100
S       -2.06894000       2.30031000       4.81089000       1.04469900       0.55743800      -0.22395600
S       -2.76490000       4.85711000       3.62710000      -0.07127900      -0.03716900      -0.78607500
S        5.46015000       0.92459000       7.83635000       2.01667600      -0.01141300      -1.25198900
S       -1.58146000       5.98560000       0.42158000      -1.19096300      -0.41209600       0.27279900
S        0.50461000       4.44972000       4.86452000       0.23494000       0.28071500       0.03945100
S        3.54151000       2.35751000       3.32357000      -0.31806900      -0.51432900       0.32387700
S       -0.65127000       3.32658000       7.81868000       0.27392500      -1.47589200      -0.76002100
S        4.74581000       3.40334000       0.63678000      -0.29738300       1.15782400       0.19612500
S        0.25738000       2.89575000       2.29873000      -0.45115600       1.04677500       2.90074100
S        3.93129000       3.42038000       5.93935000      -0.68022400       0.62554600       1.36379600
20
Lattice="10.678283899 0.0 0.0 0.162400788 6.346898746 0.0 -3.591995124 -0.033061174 5.174062227" Properties=species:S:1:pos:R:3:force:R:3 energy=-102.92076594 config_type=nep2xyz virial="23.522429043286994 2.2067818980291825 -1.9503046160849795 2.2067818980291825 21.04254457266865 0.21724719906897447 -1.9503046160849795 0.21724719906897447 20.919446070595928" volume=350.6668244955562 pbc="T T T"
Al       2.75262000       2.68253000       2.77807000      -2.01595400      -0.91257400       0.52130800
Al       1.06257000       5.90745000       3.00804000       0.24388600      -0.37869900       0.63859900
Al       4.52610000       3.65428000       0.32011000       0.01058400       1.59557200      -0.74692400
Al       2.73332000       0.57846000       0.56081000       0.73532600      -0.66161200      -0.13860900
Al       8.18529000       5.59754000       2.93410000      -0.69598200       3.33696400      -0.36463000
Al       6.33029000       2.63171000       3.45025000      -0.14313100      -0.33013800       0.16480600
Al       9.78141000       0.41853000       0.40551000       0.09567800       0.63757700       0.75964000
Al       7.82801000       3.65469000       0.50792000       1.62622500       0.53639000       0.88961100
S        2.51494000       2.77654000       0.48983000      -0.59793400      -0.21936200      -0.33547400
S        1.18210000       5.46233000       0.43823000      -0.23253600       1.11098800      -0.19433100
S        4.97317000       6.03376000       0.21638000      -1.48311200      -0.91892900      -0.43305200
S        0.71816000       3.67768000       3.06949000       0.46139900      -0.11662600       0.82514300
S       -0.99871000       0.79266000       2.80137000       0.46990800      -0.47203400       0.32483600
S        2.94823000       0.44243000       2.79692000      -0.09060900      -0.11276900       0.19572200
S        7.85417000       5.85287000       0.55410000       0.33799300       0.20580900       0.44022800
S        6.22865000       2.29421000       0.26008000       0.11072200      -0.59169200      -0.33940100